;
;	File '3OLL_proteinH_gaps_fragment_03.top' was generated
;	By user: grheco (1000)
;	On host: grheco
;	At date: Sun May 17 18:12:35 2026
;
;	This is a standalone topology file
;
;	Created by:
;	              :-) GROMACS - gmx pdb2gmx, 2026.0-conda_forge (-:
;	
;	Executable:   /home/grheco/repositorios/stack_protein_prep/.pixi/envs/default/bin.AVX2_256/gmx
;	Data prefix:  /home/grheco/repositorios/stack_protein_prep/.pixi/envs/default
;	Working dir:  /home/grheco/repositorios/stack_protein_prep/data/proteins/3OLL/components
;	Command line:
;	  gmx pdb2gmx -f /home/grheco/repositorios/stack_protein_prep/data/proteins/3OLL/components/.tmp_sanitized_protonation/3OLL_gaps_fragment_03_sanitized.pdb -o 3OLL_proteinH_gaps_fragment_03.pdb -p 3OLL_proteinH_gaps_fragment_03.top -i 3OLL_proteinH_gaps_fragment_03_posre.itp -ff amber99sb-ildn -water tip3p -chainsep id_or_ter -merge no -ignh
;	Force field was read from the standard GROMACS share directory.
;

; Include forcefield parameters
#include "amber99sb-ildn.ff/forcefield.itp"

[ moleculetype ]
; Name            nrexcl
Protein_chain_A     3

[ atoms ]
;   nr       type  resnr residue  atom   cgnr     charge       mass  typeB    chargeB      massB
; residue 489 ASP rtp NASP q  0.0
     1         N3    489    ASP      N      1     0.0782      14.01
     2          H    489    ASP     H1      2       0.22      1.008
     3          H    489    ASP     H2      3       0.22      1.008
     4          H    489    ASP     H3      4       0.22      1.008
     5         CT    489    ASP     CA      5     0.0292      12.01
     6         HP    489    ASP     HA      6     0.1141      1.008
     7         CT    489    ASP     CB      7    -0.0235      12.01
     8         HC    489    ASP    HB1      8    -0.0169      1.008
     9         HC    489    ASP    HB2      9    -0.0169      1.008
    10          C    489    ASP     CG     10     0.8194      12.01
    11         O2    489    ASP    OD1     11    -0.8084         16
    12         O2    489    ASP    OD2     12    -0.8084         16
    13          C    489    ASP      C     13     0.5621      12.01
    14          O    489    ASP      O     14    -0.5889         16   ; qtot 0
; residue 490 LEU rtp LEU  q  0.0
    15          N    490    LEU      N     15    -0.4157      14.01
    16          H    490    LEU      H     16     0.2719      1.008
    17         CT    490    LEU     CA     17    -0.0518      12.01
    18         H1    490    LEU     HA     18     0.0922      1.008
    19         CT    490    LEU     CB     19    -0.1102      12.01
    20         HC    490    LEU    HB1     20     0.0457      1.008
    21         HC    490    LEU    HB2     21     0.0457      1.008
    22         CT    490    LEU     CG     22     0.3531      12.01
    23         HC    490    LEU     HG     23    -0.0361      1.008
    24         CT    490    LEU    CD1     24    -0.4121      12.01
    25         HC    490    LEU   HD11     25        0.1      1.008
    26         HC    490    LEU   HD12     26        0.1      1.008
    27         HC    490    LEU   HD13     27        0.1      1.008
    28         CT    490    LEU    CD2     28    -0.4121      12.01
    29         HC    490    LEU   HD21     29        0.1      1.008
    30         HC    490    LEU   HD22     30        0.1      1.008
    31         HC    490    LEU   HD23     31        0.1      1.008
    32          C    490    LEU      C     32     0.5973      12.01
    33          O    490    LEU      O     33    -0.5679         16   ; qtot 0
; residue 491 LEU rtp LEU  q  0.0
    34          N    491    LEU      N     34    -0.4157      14.01
    35          H    491    LEU      H     35     0.2719      1.008
    36         CT    491    LEU     CA     36    -0.0518      12.01
    37         H1    491    LEU     HA     37     0.0922      1.008
    38         CT    491    LEU     CB     38    -0.1102      12.01
    39         HC    491    LEU    HB1     39     0.0457      1.008
    40         HC    491    LEU    HB2     40     0.0457      1.008
    41         CT    491    LEU     CG     41     0.3531      12.01
    42         HC    491    LEU     HG     42    -0.0361      1.008
    43         CT    491    LEU    CD1     43    -0.4121      12.01
    44         HC    491    LEU   HD11     44        0.1      1.008
    45         HC    491    LEU   HD12     45        0.1      1.008
    46         HC    491    LEU   HD13     46        0.1      1.008
    47         CT    491    LEU    CD2     47    -0.4121      12.01
    48         HC    491    LEU   HD21     48        0.1      1.008
    49         HC    491    LEU   HD22     49        0.1      1.008
    50         HC    491    LEU   HD23     50        0.1      1.008
    51          C    491    LEU      C     51     0.5973      12.01
    52          O    491    LEU      O     52    -0.5679         16   ; qtot 0
; residue 492 LEU rtp LEU  q  0.0
    53          N    492    LEU      N     53    -0.4157      14.01
    54          H    492    LEU      H     54     0.2719      1.008
    55         CT    492    LEU     CA     55    -0.0518      12.01
    56         H1    492    LEU     HA     56     0.0922      1.008
    57         CT    492    LEU     CB     57    -0.1102      12.01
    58         HC    492    LEU    HB1     58     0.0457      1.008
    59         HC    492    LEU    HB2     59     0.0457      1.008
    60         CT    492    LEU     CG     60     0.3531      12.01
    61         HC    492    LEU     HG     61    -0.0361      1.008
    62         CT    492    LEU    CD1     62    -0.4121      12.01
    63         HC    492    LEU   HD11     63        0.1      1.008
    64         HC    492    LEU   HD12     64        0.1      1.008
    65         HC    492    LEU   HD13     65        0.1      1.008
    66         CT    492    LEU    CD2     66    -0.4121      12.01
    67         HC    492    LEU   HD21     67        0.1      1.008
    68         HC    492    LEU   HD22     68        0.1      1.008
    69         HC    492    LEU   HD23     69        0.1      1.008
    70          C    492    LEU      C     70     0.5973      12.01
    71          O    492    LEU      O     71    -0.5679         16   ; qtot 0
; residue 493 GLU rtp GLU  q -1.0
    72          N    493    GLU      N     72    -0.5163      14.01
    73          H    493    GLU      H     73     0.2936      1.008
    74         CT    493    GLU     CA     74     0.0397      12.01
    75         H1    493    GLU     HA     75     0.1105      1.008
    76         CT    493    GLU     CB     76      0.056      12.01
    77         HC    493    GLU    HB1     77    -0.0173      1.008
    78         HC    493    GLU    HB2     78    -0.0173      1.008
    79         CT    493    GLU     CG     79     0.0136      12.01
    80         HC    493    GLU    HG1     80    -0.0425      1.008
    81         HC    493    GLU    HG2     81    -0.0425      1.008
    82          C    493    GLU     CD     82     0.8054      12.01
    83         O2    493    GLU    OE1     83    -0.8188         16
    84         O2    493    GLU    OE2     84    -0.8188         16
    85          C    493    GLU      C     85     0.5366      12.01
    86          O    493    GLU      O     86    -0.5819         16   ; qtot -1
; residue 494 MET rtp MET  q  0.0
    87          N    494    MET      N     87    -0.4157      14.01
    88          H    494    MET      H     88     0.2719      1.008
    89         CT    494    MET     CA     89    -0.0237      12.01
    90         H1    494    MET     HA     90      0.088      1.008
    91         CT    494    MET     CB     91     0.0342      12.01
    92         HC    494    MET    HB1     92     0.0241      1.008
    93         HC    494    MET    HB2     93     0.0241      1.008
    94         CT    494    MET     CG     94     0.0018      12.01
    95         H1    494    MET    HG1     95      0.044      1.008
    96         H1    494    MET    HG2     96      0.044      1.008
    97          S    494    MET     SD     97    -0.2737      32.06
    98         CT    494    MET     CE     98    -0.0536      12.01
    99         H1    494    MET    HE1     99     0.0684      1.008
   100         H1    494    MET    HE2    100     0.0684      1.008
   101         H1    494    MET    HE3    101     0.0684      1.008
   102          C    494    MET      C    102     0.5973      12.01
   103          O    494    MET      O    103    -0.5679         16   ; qtot -1
; residue 495 LEU rtp LEU  q  0.0
   104          N    495    LEU      N    104    -0.4157      14.01
   105          H    495    LEU      H    105     0.2719      1.008
   106         CT    495    LEU     CA    106    -0.0518      12.01
   107         H1    495    LEU     HA    107     0.0922      1.008
   108         CT    495    LEU     CB    108    -0.1102      12.01
   109         HC    495    LEU    HB1    109     0.0457      1.008
   110         HC    495    LEU    HB2    110     0.0457      1.008
   111         CT    495    LEU     CG    111     0.3531      12.01
   112         HC    495    LEU     HG    112    -0.0361      1.008
   113         CT    495    LEU    CD1    113    -0.4121      12.01
   114         HC    495    LEU   HD11    114        0.1      1.008
   115         HC    495    LEU   HD12    115        0.1      1.008
   116         HC    495    LEU   HD13    116        0.1      1.008
   117         CT    495    LEU    CD2    117    -0.4121      12.01
   118         HC    495    LEU   HD21    118        0.1      1.008
   119         HC    495    LEU   HD22    119        0.1      1.008
   120         HC    495    LEU   HD23    120        0.1      1.008
   121          C    495    LEU      C    121     0.5973      12.01
   122          O    495    LEU      O    122    -0.5679         16   ; qtot -1
; residue 496 ASN rtp ASN  q  0.0
   123          N    496    ASN      N    123    -0.4157      14.01
   124          H    496    ASN      H    124     0.2719      1.008
   125         CT    496    ASN     CA    125     0.0143      12.01
   126         H1    496    ASN     HA    126     0.1048      1.008
   127         CT    496    ASN     CB    127    -0.2041      12.01
   128         HC    496    ASN    HB1    128     0.0797      1.008
   129         HC    496    ASN    HB2    129     0.0797      1.008
   130          C    496    ASN     CG    130      0.713      12.01
   131          O    496    ASN    OD1    131    -0.5931         16
   132          N    496    ASN    ND2    132    -0.9191      14.01
   133          H    496    ASN   HD21    133     0.4196      1.008
   134          H    496    ASN   HD22    134     0.4196      1.008
   135          C    496    ASN      C    135     0.5973      12.01
   136          O    496    ASN      O    136    -0.5679         16   ; qtot -1
; residue 497 ALA rtp ALA  q  0.0
   137          N    497    ALA      N    137    -0.4157      14.01
   138          H    497    ALA      H    138     0.2719      1.008
   139         CT    497    ALA     CA    139     0.0337      12.01
   140         H1    497    ALA     HA    140     0.0823      1.008
   141         CT    497    ALA     CB    141    -0.1825      12.01
   142         HC    497    ALA    HB1    142     0.0603      1.008
   143         HC    497    ALA    HB2    143     0.0603      1.008
   144         HC    497    ALA    HB3    144     0.0603      1.008
   145          C    497    ALA      C    145     0.5973      12.01
   146          O    497    ALA      O    146    -0.5679         16   ; qtot -1
; residue 498 HIS rtp CHIE q -1.0
   147          N    498    HIS      N    147    -0.3821      14.01
   148          H    498    HIS      H    148     0.2681      1.008
   149         CT    498    HIS     CA    149    -0.2699      12.01
   150         H1    498    HIS     HA    150      0.165      1.008
   151         CT    498    HIS     CB    151    -0.1068      12.01
   152         HC    498    HIS    HB1    152      0.062      1.008
   153         HC    498    HIS    HB2    153      0.062      1.008
   154         CC    498    HIS     CG    154     0.2724      12.01
   155         NB    498    HIS    ND1    155    -0.5517      14.01
   156         CR    498    HIS    CE1    156     0.1558      12.01
   157         H5    498    HIS    HE1    157     0.1448      1.008
   158         NA    498    HIS    NE2    158     -0.267      14.01
   159          H    498    HIS    HE2    159     0.3319      1.008
   160         CW    498    HIS    CD2    160    -0.2588      12.01
   161         H4    498    HIS    HD2    161     0.1957      1.008
   162          C    498    HIS      C    162     0.7916      12.01
   163         O2    498    HIS    OC1    163    -0.8065         16
   164         O2    498    HIS    OC2    164    -0.8065         16   ; qtot -2

[ bonds ]
;  ai    aj funct            c0            c1            c2            c3
    1     2     1 
    1     3     1 
    1     4     1 
    1     5     1 
    5     6     1 
    5     7     1 
    5    13     1 
    7     8     1 
    7     9     1 
    7    10     1 
   10    11     1 
   10    12     1 
   13    14     1 
   13    15     1 
   15    16     1 
   15    17     1 
   17    18     1 
   17    19     1 
   17    32     1 
   19    20     1 
   19    21     1 
   19    22     1 
   22    23     1 
   22    24     1 
   22    28     1 
   24    25     1 
   24    26     1 
   24    27     1 
   28    29     1 
   28    30     1 
   28    31     1 
   32    33     1 
   32    34     1 
   34    35     1 
   34    36     1 
   36    37     1 
   36    38     1 
   36    51     1 
   38    39     1 
   38    40     1 
   38    41     1 
   41    42     1 
   41    43     1 
   41    47     1 
   43    44     1 
   43    45     1 
   43    46     1 
   47    48     1 
   47    49     1 
   47    50     1 
   51    52     1 
   51    53     1 
   53    54     1 
   53    55     1 
   55    56     1 
   55    57     1 
   55    70     1 
   57    58     1 
   57    59     1 
   57    60     1 
   60    61     1 
   60    62     1 
   60    66     1 
   62    63     1 
   62    64     1 
   62    65     1 
   66    67     1 
   66    68     1 
   66    69     1 
   70    71     1 
   70    72     1 
   72    73     1 
   72    74     1 
   74    75     1 
   74    76     1 
   74    85     1 
   76    77     1 
   76    78     1 
   76    79     1 
   79    80     1 
   79    81     1 
   79    82     1 
   82    83     1 
   82    84     1 
   85    86     1 
   85    87     1 
   87    88     1 
   87    89     1 
   89    90     1 
   89    91     1 
   89   102     1 
   91    92     1 
   91    93     1 
   91    94     1 
   94    95     1 
   94    96     1 
   94    97     1 
   97    98     1 
   98    99     1 
   98   100     1 
   98   101     1 
  102   103     1 
  102   104     1 
  104   105     1 
  104   106     1 
  106   107     1 
  106   108     1 
  106   121     1 
  108   109     1 
  108   110     1 
  108   111     1 
  111   112     1 
  111   113     1 
  111   117     1 
  113   114     1 
  113   115     1 
  113   116     1 
  117   118     1 
  117   119     1 
  117   120     1 
  121   122     1 
  121   123     1 
  123   124     1 
  123   125     1 
  125   126     1 
  125   127     1 
  125   135     1 
  127   128     1 
  127   129     1 
  127   130     1 
  130   131     1 
  130   132     1 
  132   133     1 
  132   134     1 
  135   136     1 
  135   137     1 
  137   138     1 
  137   139     1 
  139   140     1 
  139   141     1 
  139   145     1 
  141   142     1 
  141   143     1 
  141   144     1 
  145   146     1 
  145   147     1 
  147   148     1 
  147   149     1 
  149   150     1 
  149   151     1 
  149   162     1 
  151   152     1 
  151   153     1 
  151   154     1 
  154   155     1 
  154   160     1 
  155   156     1 
  156   157     1 
  156   158     1 
  158   159     1 
  158   160     1 
  160   161     1 
  162   163     1 
  162   164     1 

[ pairs ]
;  ai    aj funct            c0            c1            c2            c3
    1     8     1 
    1     9     1 
    1    10     1 
    1    14     1 
    1    15     1 
    2     6     1 
    2     7     1 
    2    13     1 
    3     6     1 
    3     7     1 
    3    13     1 
    4     6     1 
    4     7     1 
    4    13     1 
    5    11     1 
    5    12     1 
    5    16     1 
    5    17     1 
    6     8     1 
    6     9     1 
    6    10     1 
    6    14     1 
    6    15     1 
    7    14     1 
    7    15     1 
    8    11     1 
    8    12     1 
    8    13     1 
    9    11     1 
    9    12     1 
    9    13     1 
   10    13     1 
   13    18     1 
   13    19     1 
   13    32     1 
   14    16     1 
   14    17     1 
   15    20     1 
   15    21     1 
   15    22     1 
   15    33     1 
   15    34     1 
   16    18     1 
   16    19     1 
   16    32     1 
   17    23     1 
   17    24     1 
   17    28     1 
   17    35     1 
   17    36     1 
   18    20     1 
   18    21     1 
   18    22     1 
   18    33     1 
   18    34     1 
   19    25     1 
   19    26     1 
   19    27     1 
   19    29     1 
   19    30     1 
   19    31     1 
   19    33     1 
   19    34     1 
   20    23     1 
   20    24     1 
   20    28     1 
   20    32     1 
   21    23     1 
   21    24     1 
   21    28     1 
   21    32     1 
   22    32     1 
   23    25     1 
   23    26     1 
   23    27     1 
   23    29     1 
   23    30     1 
   23    31     1 
   24    29     1 
   24    30     1 
   24    31     1 
   25    28     1 
   26    28     1 
   27    28     1 
   32    37     1 
   32    38     1 
   32    51     1 
   33    35     1 
   33    36     1 
   34    39     1 
   34    40     1 
   34    41     1 
   34    52     1 
   34    53     1 
   35    37     1 
   35    38     1 
   35    51     1 
   36    42     1 
   36    43     1 
   36    47     1 
   36    54     1 
   36    55     1 
   37    39     1 
   37    40     1 
   37    41     1 
   37    52     1 
   37    53     1 
   38    44     1 
   38    45     1 
   38    46     1 
   38    48     1 
   38    49     1 
   38    50     1 
   38    52     1 
   38    53     1 
   39    42     1 
   39    43     1 
   39    47     1 
   39    51     1 
   40    42     1 
   40    43     1 
   40    47     1 
   40    51     1 
   41    51     1 
   42    44     1 
   42    45     1 
   42    46     1 
   42    48     1 
   42    49     1 
   42    50     1 
   43    48     1 
   43    49     1 
   43    50     1 
   44    47     1 
   45    47     1 
   46    47     1 
   51    56     1 
   51    57     1 
   51    70     1 
   52    54     1 
   52    55     1 
   53    58     1 
   53    59     1 
   53    60     1 
   53    71     1 
   53    72     1 
   54    56     1 
   54    57     1 
   54    70     1 
   55    61     1 
   55    62     1 
   55    66     1 
   55    73     1 
   55    74     1 
   56    58     1 
   56    59     1 
   56    60     1 
   56    71     1 
   56    72     1 
   57    63     1 
   57    64     1 
   57    65     1 
   57    67     1 
   57    68     1 
   57    69     1 
   57    71     1 
   57    72     1 
   58    61     1 
   58    62     1 
   58    66     1 
   58    70     1 
   59    61     1 
   59    62     1 
   59    66     1 
   59    70     1 
   60    70     1 
   61    63     1 
   61    64     1 
   61    65     1 
   61    67     1 
   61    68     1 
   61    69     1 
   62    67     1 
   62    68     1 
   62    69     1 
   63    66     1 
   64    66     1 
   65    66     1 
   70    75     1 
   70    76     1 
   70    85     1 
   71    73     1 
   71    74     1 
   72    77     1 
   72    78     1 
   72    79     1 
   72    86     1 
   72    87     1 
   73    75     1 
   73    76     1 
   73    85     1 
   74    80     1 
   74    81     1 
   74    82     1 
   74    88     1 
   74    89     1 
   75    77     1 
   75    78     1 
   75    79     1 
   75    86     1 
   75    87     1 
   76    83     1 
   76    84     1 
   76    86     1 
   76    87     1 
   77    80     1 
   77    81     1 
   77    82     1 
   77    85     1 
   78    80     1 
   78    81     1 
   78    82     1 
   78    85     1 
   79    85     1 
   80    83     1 
   80    84     1 
   81    83     1 
   81    84     1 
   85    90     1 
   85    91     1 
   85   102     1 
   86    88     1 
   86    89     1 
   87    92     1 
   87    93     1 
   87    94     1 
   87   103     1 
   87   104     1 
   88    90     1 
   88    91     1 
   88   102     1 
   89    95     1 
   89    96     1 
   89    97     1 
   89   105     1 
   89   106     1 
   90    92     1 
   90    93     1 
   90    94     1 
   90   103     1 
   90   104     1 
   91    98     1 
   91   103     1 
   91   104     1 
   92    95     1 
   92    96     1 
   92    97     1 
   92   102     1 
   93    95     1 
   93    96     1 
   93    97     1 
   93   102     1 
   94    99     1 
   94   100     1 
   94   101     1 
   94   102     1 
   95    98     1 
   96    98     1 
  102   107     1 
  102   108     1 
  102   121     1 
  103   105     1 
  103   106     1 
  104   109     1 
  104   110     1 
  104   111     1 
  104   122     1 
  104   123     1 
  105   107     1 
  105   108     1 
  105   121     1 
  106   112     1 
  106   113     1 
  106   117     1 
  106   124     1 
  106   125     1 
  107   109     1 
  107   110     1 
  107   111     1 
  107   122     1 
  107   123     1 
  108   114     1 
  108   115     1 
  108   116     1 
  108   118     1 
  108   119     1 
  108   120     1 
  108   122     1 
  108   123     1 
  109   112     1 
  109   113     1 
  109   117     1 
  109   121     1 
  110   112     1 
  110   113     1 
  110   117     1 
  110   121     1 
  111   121     1 
  112   114     1 
  112   115     1 
  112   116     1 
  112   118     1 
  112   119     1 
  112   120     1 
  113   118     1 
  113   119     1 
  113   120     1 
  114   117     1 
  115   117     1 
  116   117     1 
  121   126     1 
  121   127     1 
  121   135     1 
  122   124     1 
  122   125     1 
  123   128     1 
  123   129     1 
  123   130     1 
  123   136     1 
  123   137     1 
  124   126     1 
  124   127     1 
  124   135     1 
  125   131     1 
  125   132     1 
  125   138     1 
  125   139     1 
  126   128     1 
  126   129     1 
  126   130     1 
  126   136     1 
  126   137     1 
  127   133     1 
  127   134     1 
  127   136     1 
  127   137     1 
  128   131     1 
  128   132     1 
  128   135     1 
  129   131     1 
  129   132     1 
  129   135     1 
  130   135     1 
  131   133     1 
  131   134     1 
  135   140     1 
  135   141     1 
  135   145     1 
  136   138     1 
  136   139     1 
  137   142     1 
  137   143     1 
  137   144     1 
  137   146     1 
  137   147     1 
  138   140     1 
  138   141     1 
  138   145     1 
  139   148     1 
  139   149     1 
  140   142     1 
  140   143     1 
  140   144     1 
  140   146     1 
  140   147     1 
  141   146     1 
  141   147     1 
  142   145     1 
  143   145     1 
  144   145     1 
  145   150     1 
  145   151     1 
  145   162     1 
  146   148     1 
  146   149     1 
  147   152     1 
  147   153     1 
  147   154     1 
  147   163     1 
  147   164     1 
  148   150     1 
  148   151     1 
  148   162     1 
  149   155     1 
  149   160     1 
  150   152     1 
  150   153     1 
  150   154     1 
  150   163     1 
  150   164     1 
  151   156     1 
  151   158     1 
  151   161     1 
  151   163     1 
  151   164     1 
  152   155     1 
  152   160     1 
  152   162     1 
  153   155     1 
  153   160     1 
  153   162     1 
  154   157     1 
  154   159     1 
  154   162     1 
  155   159     1 
  155   161     1 
  156   161     1 
  157   159     1 
  157   160     1 
  159   161     1 

[ angles ]
;  ai    aj    ak funct            c0            c1            c2            c3
    2     1     3     1 
    2     1     4     1 
    2     1     5     1 
    3     1     4     1 
    3     1     5     1 
    4     1     5     1 
    1     5     6     1 
    1     5     7     1 
    1     5    13     1 
    6     5     7     1 
    6     5    13     1 
    7     5    13     1 
    5     7     8     1 
    5     7     9     1 
    5     7    10     1 
    8     7     9     1 
    8     7    10     1 
    9     7    10     1 
    7    10    11     1 
    7    10    12     1 
   11    10    12     1 
    5    13    14     1 
    5    13    15     1 
   14    13    15     1 
   13    15    16     1 
   13    15    17     1 
   16    15    17     1 
   15    17    18     1 
   15    17    19     1 
   15    17    32     1 
   18    17    19     1 
   18    17    32     1 
   19    17    32     1 
   17    19    20     1 
   17    19    21     1 
   17    19    22     1 
   20    19    21     1 
   20    19    22     1 
   21    19    22     1 
   19    22    23     1 
   19    22    24     1 
   19    22    28     1 
   23    22    24     1 
   23    22    28     1 
   24    22    28     1 
   22    24    25     1 
   22    24    26     1 
   22    24    27     1 
   25    24    26     1 
   25    24    27     1 
   26    24    27     1 
   22    28    29     1 
   22    28    30     1 
   22    28    31     1 
   29    28    30     1 
   29    28    31     1 
   30    28    31     1 
   17    32    33     1 
   17    32    34     1 
   33    32    34     1 
   32    34    35     1 
   32    34    36     1 
   35    34    36     1 
   34    36    37     1 
   34    36    38     1 
   34    36    51     1 
   37    36    38     1 
   37    36    51     1 
   38    36    51     1 
   36    38    39     1 
   36    38    40     1 
   36    38    41     1 
   39    38    40     1 
   39    38    41     1 
   40    38    41     1 
   38    41    42     1 
   38    41    43     1 
   38    41    47     1 
   42    41    43     1 
   42    41    47     1 
   43    41    47     1 
   41    43    44     1 
   41    43    45     1 
   41    43    46     1 
   44    43    45     1 
   44    43    46     1 
   45    43    46     1 
   41    47    48     1 
   41    47    49     1 
   41    47    50     1 
   48    47    49     1 
   48    47    50     1 
   49    47    50     1 
   36    51    52     1 
   36    51    53     1 
   52    51    53     1 
   51    53    54     1 
   51    53    55     1 
   54    53    55     1 
   53    55    56     1 
   53    55    57     1 
   53    55    70     1 
   56    55    57     1 
   56    55    70     1 
   57    55    70     1 
   55    57    58     1 
   55    57    59     1 
   55    57    60     1 
   58    57    59     1 
   58    57    60     1 
   59    57    60     1 
   57    60    61     1 
   57    60    62     1 
   57    60    66     1 
   61    60    62     1 
   61    60    66     1 
   62    60    66     1 
   60    62    63     1 
   60    62    64     1 
   60    62    65     1 
   63    62    64     1 
   63    62    65     1 
   64    62    65     1 
   60    66    67     1 
   60    66    68     1 
   60    66    69     1 
   67    66    68     1 
   67    66    69     1 
   68    66    69     1 
   55    70    71     1 
   55    70    72     1 
   71    70    72     1 
   70    72    73     1 
   70    72    74     1 
   73    72    74     1 
   72    74    75     1 
   72    74    76     1 
   72    74    85     1 
   75    74    76     1 
   75    74    85     1 
   76    74    85     1 
   74    76    77     1 
   74    76    78     1 
   74    76    79     1 
   77    76    78     1 
   77    76    79     1 
   78    76    79     1 
   76    79    80     1 
   76    79    81     1 
   76    79    82     1 
   80    79    81     1 
   80    79    82     1 
   81    79    82     1 
   79    82    83     1 
   79    82    84     1 
   83    82    84     1 
   74    85    86     1 
   74    85    87     1 
   86    85    87     1 
   85    87    88     1 
   85    87    89     1 
   88    87    89     1 
   87    89    90     1 
   87    89    91     1 
   87    89   102     1 
   90    89    91     1 
   90    89   102     1 
   91    89   102     1 
   89    91    92     1 
   89    91    93     1 
   89    91    94     1 
   92    91    93     1 
   92    91    94     1 
   93    91    94     1 
   91    94    95     1 
   91    94    96     1 
   91    94    97     1 
   95    94    96     1 
   95    94    97     1 
   96    94    97     1 
   94    97    98     1 
   97    98    99     1 
   97    98   100     1 
   97    98   101     1 
   99    98   100     1 
   99    98   101     1 
  100    98   101     1 
   89   102   103     1 
   89   102   104     1 
  103   102   104     1 
  102   104   105     1 
  102   104   106     1 
  105   104   106     1 
  104   106   107     1 
  104   106   108     1 
  104   106   121     1 
  107   106   108     1 
  107   106   121     1 
  108   106   121     1 
  106   108   109     1 
  106   108   110     1 
  106   108   111     1 
  109   108   110     1 
  109   108   111     1 
  110   108   111     1 
  108   111   112     1 
  108   111   113     1 
  108   111   117     1 
  112   111   113     1 
  112   111   117     1 
  113   111   117     1 
  111   113   114     1 
  111   113   115     1 
  111   113   116     1 
  114   113   115     1 
  114   113   116     1 
  115   113   116     1 
  111   117   118     1 
  111   117   119     1 
  111   117   120     1 
  118   117   119     1 
  118   117   120     1 
  119   117   120     1 
  106   121   122     1 
  106   121   123     1 
  122   121   123     1 
  121   123   124     1 
  121   123   125     1 
  124   123   125     1 
  123   125   126     1 
  123   125   127     1 
  123   125   135     1 
  126   125   127     1 
  126   125   135     1 
  127   125   135     1 
  125   127   128     1 
  125   127   129     1 
  125   127   130     1 
  128   127   129     1 
  128   127   130     1 
  129   127   130     1 
  127   130   131     1 
  127   130   132     1 
  131   130   132     1 
  130   132   133     1 
  130   132   134     1 
  133   132   134     1 
  125   135   136     1 
  125   135   137     1 
  136   135   137     1 
  135   137   138     1 
  135   137   139     1 
  138   137   139     1 
  137   139   140     1 
  137   139   141     1 
  137   139   145     1 
  140   139   141     1 
  140   139   145     1 
  141   139   145     1 
  139   141   142     1 
  139   141   143     1 
  139   141   144     1 
  142   141   143     1 
  142   141   144     1 
  143   141   144     1 
  139   145   146     1 
  139   145   147     1 
  146   145   147     1 
  145   147   148     1 
  145   147   149     1 
  148   147   149     1 
  147   149   150     1 
  147   149   151     1 
  147   149   162     1 
  150   149   151     1 
  150   149   162     1 
  151   149   162     1 
  149   151   152     1 
  149   151   153     1 
  149   151   154     1 
  152   151   153     1 
  152   151   154     1 
  153   151   154     1 
  151   154   155     1 
  151   154   160     1 
  155   154   160     1 
  154   155   156     1 
  155   156   157     1 
  155   156   158     1 
  157   156   158     1 
  156   158   159     1 
  156   158   160     1 
  159   158   160     1 
  154   160   158     1 
  154   160   161     1 
  158   160   161     1 
  149   162   163     1 
  149   162   164     1 
  163   162   164     1 

[ dihedrals ]
;  ai    aj    ak    al funct            c0            c1            c2            c3            c4            c5
    2     1     5     6     9 
    2     1     5     7     9 
    2     1     5    13     9 
    3     1     5     6     9 
    3     1     5     7     9 
    3     1     5    13     9 
    4     1     5     6     9 
    4     1     5     7     9 
    4     1     5    13     9 
    1     5     7    10     9    torsion_ASP_N_CA_CB_CG_mult1
    1     5     7    10     9    torsion_ASP_N_CA_CB_CG_mult2
    1     5     7    10     9    torsion_ASP_N_CA_CB_CG_mult3
    1     5     7    10     9    torsion_ASP_N_CA_CB_CG_mult4
    1     5     7    10     9    torsion_ASP_N_CA_CB_CG_mult5
    1     5     7    10     9    torsion_ASP_N_CA_CB_CG_mult6
    1     5     7     8     9 
    1     5     7     9     9 
    6     5     7     8     9 
    6     5     7     9     9 
    6     5     7    10     9 
   13     5     7     8     9 
   13     5     7     9     9 
   13     5     7    10     9 
    1     5    13    14     9 
    1     5    13    15     9 
    6     5    13    14     9 
    6     5    13    15     9 
    7     5    13    14     9 
    7     5    13    15     9 
    5     7    10    11     9    torsion_ASP_CA_CB_CG_OD_mult1
    5     7    10    11     9    torsion_ASP_CA_CB_CG_OD_mult2
    5     7    10    11     9    torsion_ASP_CA_CB_CG_OD_mult3
    5     7    10    11     9    torsion_ASP_CA_CB_CG_OD_mult4
    5     7    10    11     9    torsion_ASP_CA_CB_CG_OD_mult5
    5     7    10    11     9    torsion_ASP_CA_CB_CG_OD_mult6
    5     7    10    12     9    torsion_ASP_CA_CB_CG_OD_mult1
    5     7    10    12     9    torsion_ASP_CA_CB_CG_OD_mult2
    5     7    10    12     9    torsion_ASP_CA_CB_CG_OD_mult3
    5     7    10    12     9    torsion_ASP_CA_CB_CG_OD_mult4
    5     7    10    12     9    torsion_ASP_CA_CB_CG_OD_mult5
    5     7    10    12     9    torsion_ASP_CA_CB_CG_OD_mult6
    8     7    10    11     9 
    8     7    10    12     9 
    9     7    10    11     9 
    9     7    10    12     9 
    5    13    15    16     9 
    5    13    15    17     9 
   14    13    15    16     9 
   14    13    15    17     9 
   13    15    17    18     9 
   13    15    17    19     9 
   13    15    17    32     9 
   16    15    17    18     9 
   16    15    17    19     9 
   16    15    17    32     9 
   32    17    19    22     9    torsion_LEU_C_CA_CB_CG_mult1
   32    17    19    22     9    torsion_LEU_C_CA_CB_CG_mult2
   32    17    19    22     9    torsion_LEU_C_CA_CB_CG_mult3
   15    17    19    20     9 
   15    17    19    21     9 
   15    17    19    22     9 
   18    17    19    20     9 
   18    17    19    21     9 
   18    17    19    22     9 
   32    17    19    20     9 
   32    17    19    21     9 
   15    17    32    33     9 
   15    17    32    34     9 
   18    17    32    33     9 
   18    17    32    34     9 
   19    17    32    33     9 
   19    17    32    34     9 
   17    19    22    23     9 
   17    19    22    24     9 
   17    19    22    28     9 
   20    19    22    23     9 
   20    19    22    24     9 
   20    19    22    28     9 
   21    19    22    23     9 
   21    19    22    24     9 
   21    19    22    28     9 
   19    22    24    25     9 
   19    22    24    26     9 
   19    22    24    27     9 
   23    22    24    25     9 
   23    22    24    26     9 
   23    22    24    27     9 
   28    22    24    25     9 
   28    22    24    26     9 
   28    22    24    27     9 
   19    22    28    29     9 
   19    22    28    30     9 
   19    22    28    31     9 
   23    22    28    29     9 
   23    22    28    30     9 
   23    22    28    31     9 
   24    22    28    29     9 
   24    22    28    30     9 
   24    22    28    31     9 
   17    32    34    35     9 
   17    32    34    36     9 
   33    32    34    35     9 
   33    32    34    36     9 
   32    34    36    37     9 
   32    34    36    38     9 
   32    34    36    51     9 
   35    34    36    37     9 
   35    34    36    38     9 
   35    34    36    51     9 
   51    36    38    41     9    torsion_LEU_C_CA_CB_CG_mult1
   51    36    38    41     9    torsion_LEU_C_CA_CB_CG_mult2
   51    36    38    41     9    torsion_LEU_C_CA_CB_CG_mult3
   34    36    38    39     9 
   34    36    38    40     9 
   34    36    38    41     9 
   37    36    38    39     9 
   37    36    38    40     9 
   37    36    38    41     9 
   51    36    38    39     9 
   51    36    38    40     9 
   34    36    51    52     9 
   34    36    51    53     9 
   37    36    51    52     9 
   37    36    51    53     9 
   38    36    51    52     9 
   38    36    51    53     9 
   36    38    41    42     9 
   36    38    41    43     9 
   36    38    41    47     9 
   39    38    41    42     9 
   39    38    41    43     9 
   39    38    41    47     9 
   40    38    41    42     9 
   40    38    41    43     9 
   40    38    41    47     9 
   38    41    43    44     9 
   38    41    43    45     9 
   38    41    43    46     9 
   42    41    43    44     9 
   42    41    43    45     9 
   42    41    43    46     9 
   47    41    43    44     9 
   47    41    43    45     9 
   47    41    43    46     9 
   38    41    47    48     9 
   38    41    47    49     9 
   38    41    47    50     9 
   42    41    47    48     9 
   42    41    47    49     9 
   42    41    47    50     9 
   43    41    47    48     9 
   43    41    47    49     9 
   43    41    47    50     9 
   36    51    53    54     9 
   36    51    53    55     9 
   52    51    53    54     9 
   52    51    53    55     9 
   51    53    55    56     9 
   51    53    55    57     9 
   51    53    55    70     9 
   54    53    55    56     9 
   54    53    55    57     9 
   54    53    55    70     9 
   70    55    57    60     9    torsion_LEU_C_CA_CB_CG_mult1
   70    55    57    60     9    torsion_LEU_C_CA_CB_CG_mult2
   70    55    57    60     9    torsion_LEU_C_CA_CB_CG_mult3
   53    55    57    58     9 
   53    55    57    59     9 
   53    55    57    60     9 
   56    55    57    58     9 
   56    55    57    59     9 
   56    55    57    60     9 
   70    55    57    58     9 
   70    55    57    59     9 
   53    55    70    71     9 
   53    55    70    72     9 
   56    55    70    71     9 
   56    55    70    72     9 
   57    55    70    71     9 
   57    55    70    72     9 
   55    57    60    61     9 
   55    57    60    62     9 
   55    57    60    66     9 
   58    57    60    61     9 
   58    57    60    62     9 
   58    57    60    66     9 
   59    57    60    61     9 
   59    57    60    62     9 
   59    57    60    66     9 
   57    60    62    63     9 
   57    60    62    64     9 
   57    60    62    65     9 
   61    60    62    63     9 
   61    60    62    64     9 
   61    60    62    65     9 
   66    60    62    63     9 
   66    60    62    64     9 
   66    60    62    65     9 
   57    60    66    67     9 
   57    60    66    68     9 
   57    60    66    69     9 
   61    60    66    67     9 
   61    60    66    68     9 
   61    60    66    69     9 
   62    60    66    67     9 
   62    60    66    68     9 
   62    60    66    69     9 
   55    70    72    73     9 
   55    70    72    74     9 
   71    70    72    73     9 
   71    70    72    74     9 
   70    72    74    75     9 
   70    72    74    76     9 
   70    72    74    85     9 
   73    72    74    75     9 
   73    72    74    76     9 
   73    72    74    85     9 
   72    74    76    77     9 
   72    74    76    78     9 
   72    74    76    79     9 
   75    74    76    77     9 
   75    74    76    78     9 
   75    74    76    79     9 
   85    74    76    77     9 
   85    74    76    78     9 
   85    74    76    79     9 
   72    74    85    86     9 
   72    74    85    87     9 
   75    74    85    86     9 
   75    74    85    87     9 
   76    74    85    86     9 
   76    74    85    87     9 
   74    76    79    80     9 
   74    76    79    81     9 
   74    76    79    82     9 
   77    76    79    80     9 
   77    76    79    81     9 
   77    76    79    82     9 
   78    76    79    80     9 
   78    76    79    81     9 
   78    76    79    82     9 
   76    79    82    83     9 
   76    79    82    84     9 
   80    79    82    83     9 
   80    79    82    84     9 
   81    79    82    83     9 
   81    79    82    84     9 
   74    85    87    88     9 
   74    85    87    89     9 
   86    85    87    88     9 
   86    85    87    89     9 
   85    87    89    90     9 
   85    87    89    91     9 
   85    87    89   102     9 
   88    87    89    90     9 
   88    87    89    91     9 
   88    87    89   102     9 
   87    89    91    92     9 
   87    89    91    93     9 
   87    89    91    94     9 
   90    89    91    92     9 
   90    89    91    93     9 
   90    89    91    94     9 
  102    89    91    92     9 
  102    89    91    93     9 
  102    89    91    94     9 
   87    89   102   103     9 
   87    89   102   104     9 
   90    89   102   103     9 
   90    89   102   104     9 
   91    89   102   103     9 
   91    89   102   104     9 
   89    91    94    95     9 
   89    91    94    96     9 
   89    91    94    97     9 
   92    91    94    95     9 
   92    91    94    96     9 
   92    91    94    97     9 
   93    91    94    95     9 
   93    91    94    96     9 
   93    91    94    97     9 
   91    94    97    98     9 
   95    94    97    98     9 
   96    94    97    98     9 
   94    97    98    99     9 
   94    97    98   100     9 
   94    97    98   101     9 
   89   102   104   105     9 
   89   102   104   106     9 
  103   102   104   105     9 
  103   102   104   106     9 
  102   104   106   107     9 
  102   104   106   108     9 
  102   104   106   121     9 
  105   104   106   107     9 
  105   104   106   108     9 
  105   104   106   121     9 
  121   106   108   111     9    torsion_LEU_C_CA_CB_CG_mult1
  121   106   108   111     9    torsion_LEU_C_CA_CB_CG_mult2
  121   106   108   111     9    torsion_LEU_C_CA_CB_CG_mult3
  104   106   108   109     9 
  104   106   108   110     9 
  104   106   108   111     9 
  107   106   108   109     9 
  107   106   108   110     9 
  107   106   108   111     9 
  121   106   108   109     9 
  121   106   108   110     9 
  104   106   121   122     9 
  104   106   121   123     9 
  107   106   121   122     9 
  107   106   121   123     9 
  108   106   121   122     9 
  108   106   121   123     9 
  106   108   111   112     9 
  106   108   111   113     9 
  106   108   111   117     9 
  109   108   111   112     9 
  109   108   111   113     9 
  109   108   111   117     9 
  110   108   111   112     9 
  110   108   111   113     9 
  110   108   111   117     9 
  108   111   113   114     9 
  108   111   113   115     9 
  108   111   113   116     9 
  112   111   113   114     9 
  112   111   113   115     9 
  112   111   113   116     9 
  117   111   113   114     9 
  117   111   113   115     9 
  117   111   113   116     9 
  108   111   117   118     9 
  108   111   117   119     9 
  108   111   117   120     9 
  112   111   117   118     9 
  112   111   117   119     9 
  112   111   117   120     9 
  113   111   117   118     9 
  113   111   117   119     9 
  113   111   117   120     9 
  106   121   123   124     9 
  106   121   123   125     9 
  122   121   123   124     9 
  122   121   123   125     9 
  121   123   125   126     9 
  121   123   125   127     9 
  121   123   125   135     9 
  124   123   125   126     9 
  124   123   125   127     9 
  124   123   125   135     9 
  135   125   127   130     9    torsion_ASN_C_CA_CB_CG_mult1
  135   125   127   130     9    torsion_ASN_C_CA_CB_CG_mult2
  135   125   127   130     9    torsion_ASN_C_CA_CB_CG_mult3
  135   125   127   130     9    torsion_ASN_C_CA_CB_CG_mult4
  135   125   127   130     9    torsion_ASN_C_CA_CB_CG_mult5
  135   125   127   130     9    torsion_ASN_C_CA_CB_CG_mult6
  123   125   127   128     9 
  123   125   127   129     9 
  123   125   127   130     9 
  126   125   127   128     9 
  126   125   127   129     9 
  126   125   127   130     9 
  135   125   127   128     9 
  135   125   127   129     9 
  123   125   135   136     9 
  123   125   135   137     9 
  126   125   135   136     9 
  126   125   135   137     9 
  127   125   135   136     9 
  127   125   135   137     9 
  125   127   130   132     9    torsion_ASN_CA_CB_CG_ND2_mult1
  125   127   130   132     9    torsion_ASN_CA_CB_CG_ND2_mult2
  125   127   130   132     9    torsion_ASN_CA_CB_CG_ND2_mult3
  125   127   130   132     9    torsion_ASN_CA_CB_CG_ND2_mult4
  125   127   130   132     9    torsion_ASN_CA_CB_CG_ND2_mult5
  125   127   130   132     9    torsion_ASN_CA_CB_CG_ND2_mult6
  125   127   130   131     9 
  128   127   130   131     9 
  128   127   130   132     9 
  129   127   130   131     9 
  129   127   130   132     9 
  127   130   132   133     9 
  127   130   132   134     9 
  131   130   132   133     9 
  131   130   132   134     9 
  125   135   137   138     9 
  125   135   137   139     9 
  136   135   137   138     9 
  136   135   137   139     9 
  135   137   139   140     9 
  135   137   139   141     9 
  135   137   139   145     9 
  138   137   139   140     9 
  138   137   139   141     9 
  138   137   139   145     9 
  137   139   141   142     9 
  137   139   141   143     9 
  137   139   141   144     9 
  140   139   141   142     9 
  140   139   141   143     9 
  140   139   141   144     9 
  145   139   141   142     9 
  145   139   141   143     9 
  145   139   141   144     9 
  137   139   145   146     9 
  137   139   145   147     9 
  140   139   145   146     9 
  140   139   145   147     9 
  141   139   145   146     9 
  141   139   145   147     9 
  139   145   147   148     9 
  139   145   147   149     9 
  146   145   147   148     9 
  146   145   147   149     9 
  145   147   149   150     9 
  145   147   149   151     9 
  145   147   149   162     9 
  148   147   149   150     9 
  148   147   149   151     9 
  148   147   149   162     9 
  147   149   151   152     9 
  147   149   151   153     9 
  147   149   151   154     9 
  150   149   151   152     9 
  150   149   151   153     9 
  150   149   151   154     9 
  162   149   151   152     9 
  162   149   151   153     9 
  162   149   151   154     9 
  147   149   162   163     9 
  147   149   162   164     9 
  150   149   162   163     9 
  150   149   162   164     9 
  151   149   162   163     9 
  151   149   162   164     9 
  149   151   154   155     9 
  149   151   154   160     9 
  152   151   154   155     9 
  152   151   154   160     9 
  153   151   154   155     9 
  153   151   154   160     9 
  151   154   155   156     9 
  160   154   155   156     9 
  151   154   160   158     9 
  151   154   160   161     9 
  155   154   160   158     9 
  155   154   160   161     9 
  154   155   156   157     9 
  154   155   156   158     9 
  155   156   158   159     9 
  155   156   158   160     9 
  157   156   158   159     9 
  157   156   158   160     9 
  156   158   160   154     9 
  156   158   160   161     9 
  159   158   160   154     9 
  159   158   160   161     9 

[ dihedrals ]
;  ai    aj    ak    al funct            c0            c1            c2            c3
    5    15    13    14     4 
    7    11    10    12     4 
   13    17    15    16     4 
   17    34    32    33     4 
   32    36    34    35     4 
   36    53    51    52     4 
   51    55    53    54     4 
   55    72    70    71     4 
   70    74    72    73     4 
   74    87    85    86     4 
   79    83    82    84     4 
   85    89    87    88     4 
   89   104   102   103     4 
  102   106   104   105     4 
  106   123   121   122     4 
  121   125   123   124     4 
  125   137   135   136     4 
  127   132   130   131     4 
  130   133   132   134     4 
  135   139   137   138     4 
  139   147   145   146     4 
  145   149   147   148     4 
  149   163   162   164     4 
  151   154   160   155     4 
  154   158   160   161     4 
  155   158   156   157     4 
  156   160   158   159     4 

; Include Position restraint file
#ifdef POSRES
#include "3OLL_proteinH_gaps_fragment_03_posre.itp"
#endif

; Include water topology
#include "amber99sb-ildn.ff/tip3p.itp"

#ifdef POSRES_WATER
; Position restraint for each water oxygen
[ position_restraints ]
;  i funct       fcx        fcy        fcz
   1    1       1000       1000       1000
#endif

; Include topology for ions
#include "amber99sb-ildn.ff/ions.itp"

[ system ]
; Name
Protein

[ molecules ]
; Compound        #mols
Protein_chain_A     1
