;
;	File '3BC3_proteinH_gaps_fragment_01.top' was generated
;	By user: grheco (1000)
;	On host: grheco
;	At date: Sun May 17 17:45:25 2026
;
;	This is a standalone topology file
;
;	Created by:
;	              :-) GROMACS - gmx pdb2gmx, 2026.0-conda_forge (-:
;	
;	Executable:   /home/grheco/repositorios/stack_protein_prep/.pixi/envs/default/bin.AVX2_256/gmx
;	Data prefix:  /home/grheco/repositorios/stack_protein_prep/.pixi/envs/default
;	Working dir:  /home/grheco/repositorios/stack_protein_prep/data/proteins/3BC3/components
;	Command line:
;	  gmx pdb2gmx -f /home/grheco/repositorios/stack_protein_prep/data/proteins/3BC3/components/.tmp_sanitized_protonation/3BC3_gaps_fragment_01_sanitized.pdb -o 3BC3_proteinH_gaps_fragment_01.pdb -p 3BC3_proteinH_gaps_fragment_01.top -i 3BC3_proteinH_gaps_fragment_01_posre.itp -ff amber99sb-ildn -water tip3p -chainsep id_or_ter -merge no -ignh
;	Force field was read from the standard GROMACS share directory.
;

; Include forcefield parameters
#include "amber99sb-ildn.ff/forcefield.itp"

[ moleculetype ]
; Name            nrexcl
Protein_chain_A     3

[ atoms ]
;   nr       type  resnr residue  atom   cgnr     charge       mass  typeB    chargeB      massB
; residue   1 ALA rtp NALA q +1.0
     1         N3      1    ALA      N      1     0.1414      14.01
     2          H      1    ALA     H1      2     0.1997      1.008
     3          H      1    ALA     H2      3     0.1997      1.008
     4          H      1    ALA     H3      4     0.1997      1.008
     5         CT      1    ALA     CA      5     0.0962      12.01
     6         HP      1    ALA     HA      6     0.0889      1.008
     7         CT      1    ALA     CB      7    -0.0597      12.01
     8         HC      1    ALA    HB1      8       0.03      1.008
     9         HC      1    ALA    HB2      9       0.03      1.008
    10         HC      1    ALA    HB3     10       0.03      1.008
    11          C      1    ALA      C     11     0.6163      12.01
    12          O      1    ALA      O     12    -0.5722         16   ; qtot 1
; residue   2 PRO rtp PRO  q  0.0
    13          N      2    PRO      N     13    -0.2548      14.01
    14         CT      2    PRO     CD     14     0.0192      12.01
    15         H1      2    PRO    HD1     15     0.0391      1.008
    16         H1      2    PRO    HD2     16     0.0391      1.008
    17         CT      2    PRO     CG     17     0.0189      12.01
    18         HC      2    PRO    HG1     18     0.0213      1.008
    19         HC      2    PRO    HG2     19     0.0213      1.008
    20         CT      2    PRO     CB     20     -0.007      12.01
    21         HC      2    PRO    HB1     21     0.0253      1.008
    22         HC      2    PRO    HB2     22     0.0253      1.008
    23         CT      2    PRO     CA     23    -0.0266      12.01
    24         H1      2    PRO     HA     24     0.0641      1.008
    25          C      2    PRO      C     25     0.5896      12.01
    26          O      2    PRO      O     26    -0.5748         16   ; qtot 1
; residue   3 ARG rtp ARG  q +1.0
    27          N      3    ARG      N     27    -0.3479      14.01
    28          H      3    ARG      H     28     0.2747      1.008
    29         CT      3    ARG     CA     29    -0.2637      12.01
    30         H1      3    ARG     HA     30      0.156      1.008
    31         CT      3    ARG     CB     31    -0.0007      12.01
    32         HC      3    ARG    HB1     32     0.0327      1.008
    33         HC      3    ARG    HB2     33     0.0327      1.008
    34         CT      3    ARG     CG     34      0.039      12.01
    35         HC      3    ARG    HG1     35     0.0285      1.008
    36         HC      3    ARG    HG2     36     0.0285      1.008
    37         CT      3    ARG     CD     37     0.0486      12.01
    38         H1      3    ARG    HD1     38     0.0687      1.008
    39         H1      3    ARG    HD2     39     0.0687      1.008
    40         N2      3    ARG     NE     40    -0.5295      14.01
    41          H      3    ARG     HE     41     0.3456      1.008
    42         CA      3    ARG     CZ     42     0.8076      12.01
    43         N2      3    ARG    NH1     43    -0.8627      14.01
    44          H      3    ARG   HH11     44     0.4478      1.008
    45          H      3    ARG   HH12     45     0.4478      1.008
    46         N2      3    ARG    NH2     46    -0.8627      14.01
    47          H      3    ARG   HH21     47     0.4478      1.008
    48          H      3    ARG   HH22     48     0.4478      1.008
    49          C      3    ARG      C     49     0.7341      12.01
    50          O      3    ARG      O     50    -0.5894         16   ; qtot 2
; residue   4 SER rtp SER  q  0.0
    51          N      4    SER      N     51    -0.4157      14.01
    52          H      4    SER      H     52     0.2719      1.008
    53         CT      4    SER     CA     53    -0.0249      12.01
    54         H1      4    SER     HA     54     0.0843      1.008
    55         CT      4    SER     CB     55     0.2117      12.01
    56         H1      4    SER    HB1     56     0.0352      1.008
    57         H1      4    SER    HB2     57     0.0352      1.008
    58         OH      4    SER     OG     58    -0.6546         16
    59         HO      4    SER     HG     59     0.4275      1.008
    60          C      4    SER      C     60     0.5973      12.01
    61          O      4    SER      O     61    -0.5679         16   ; qtot 2
; residue   5 VAL rtp VAL  q  0.0
    62          N      5    VAL      N     62    -0.4157      14.01
    63          H      5    VAL      H     63     0.2719      1.008
    64         CT      5    VAL     CA     64    -0.0875      12.01
    65         H1      5    VAL     HA     65     0.0969      1.008
    66         CT      5    VAL     CB     66     0.2985      12.01
    67         HC      5    VAL     HB     67    -0.0297      1.008
    68         CT      5    VAL    CG1     68    -0.3192      12.01
    69         HC      5    VAL   HG11     69     0.0791      1.008
    70         HC      5    VAL   HG12     70     0.0791      1.008
    71         HC      5    VAL   HG13     71     0.0791      1.008
    72         CT      5    VAL    CG2     72    -0.3192      12.01
    73         HC      5    VAL   HG21     73     0.0791      1.008
    74         HC      5    VAL   HG22     74     0.0791      1.008
    75         HC      5    VAL   HG23     75     0.0791      1.008
    76          C      5    VAL      C     76     0.5973      12.01
    77          O      5    VAL      O     77    -0.5679         16   ; qtot 2
; residue   6 ASP rtp ASP  q -1.0
    78          N      6    ASP      N     78    -0.5163      14.01
    79          H      6    ASP      H     79     0.2936      1.008
    80         CT      6    ASP     CA     80     0.0381      12.01
    81         H1      6    ASP     HA     81      0.088      1.008
    82         CT      6    ASP     CB     82    -0.0303      12.01
    83         HC      6    ASP    HB1     83    -0.0122      1.008
    84         HC      6    ASP    HB2     84    -0.0122      1.008
    85          C      6    ASP     CG     85     0.7994      12.01
    86         O2      6    ASP    OD1     86    -0.8014         16
    87         O2      6    ASP    OD2     87    -0.8014         16
    88          C      6    ASP      C     88     0.5366      12.01
    89          O      6    ASP      O     89    -0.5819         16   ; qtot 1
; residue   7 TRP rtp TRP  q  0.0
    90          N      7    TRP      N     90    -0.4157      14.01
    91          H      7    TRP      H     91     0.2719      1.008
    92         CT      7    TRP     CA     92    -0.0275      12.01
    93         H1      7    TRP     HA     93     0.1123      1.008
    94         CT      7    TRP     CB     94     -0.005      12.01
    95         HC      7    TRP    HB1     95     0.0339      1.008
    96         HC      7    TRP    HB2     96     0.0339      1.008
    97         C*      7    TRP     CG     97    -0.1415      12.01
    98         CW      7    TRP    CD1     98    -0.1638      12.01
    99         H4      7    TRP    HD1     99     0.2062      1.008
   100         NA      7    TRP    NE1    100    -0.3418      14.01
   101          H      7    TRP    HE1    101     0.3412      1.008
   102         CN      7    TRP    CE2    102      0.138      12.01
   103         CA      7    TRP    CZ2    103    -0.2601      12.01
   104         HA      7    TRP    HZ2    104     0.1572      1.008
   105         CA      7    TRP    CH2    105    -0.1134      12.01
   106         HA      7    TRP    HH2    106     0.1417      1.008
   107         CA      7    TRP    CZ3    107    -0.1972      12.01
   108         HA      7    TRP    HZ3    108     0.1447      1.008
   109         CA      7    TRP    CE3    109    -0.2387      12.01
   110         HA      7    TRP    HE3    110       0.17      1.008
   111         CB      7    TRP    CD2    111     0.1243      12.01
   112          C      7    TRP      C    112     0.5973      12.01
   113          O      7    TRP      O    113    -0.5679         16   ; qtot 1
; residue   8 ARG rtp ARG  q +1.0
   114          N      8    ARG      N    114    -0.3479      14.01
   115          H      8    ARG      H    115     0.2747      1.008
   116         CT      8    ARG     CA    116    -0.2637      12.01
   117         H1      8    ARG     HA    117      0.156      1.008
   118         CT      8    ARG     CB    118    -0.0007      12.01
   119         HC      8    ARG    HB1    119     0.0327      1.008
   120         HC      8    ARG    HB2    120     0.0327      1.008
   121         CT      8    ARG     CG    121      0.039      12.01
   122         HC      8    ARG    HG1    122     0.0285      1.008
   123         HC      8    ARG    HG2    123     0.0285      1.008
   124         CT      8    ARG     CD    124     0.0486      12.01
   125         H1      8    ARG    HD1    125     0.0687      1.008
   126         H1      8    ARG    HD2    126     0.0687      1.008
   127         N2      8    ARG     NE    127    -0.5295      14.01
   128          H      8    ARG     HE    128     0.3456      1.008
   129         CA      8    ARG     CZ    129     0.8076      12.01
   130         N2      8    ARG    NH1    130    -0.8627      14.01
   131          H      8    ARG   HH11    131     0.4478      1.008
   132          H      8    ARG   HH12    132     0.4478      1.008
   133         N2      8    ARG    NH2    133    -0.8627      14.01
   134          H      8    ARG   HH21    134     0.4478      1.008
   135          H      8    ARG   HH22    135     0.4478      1.008
   136          C      8    ARG      C    136     0.7341      12.01
   137          O      8    ARG      O    137    -0.5894         16   ; qtot 2
; residue   9 GLU rtp GLU  q -1.0
   138          N      9    GLU      N    138    -0.5163      14.01
   139          H      9    GLU      H    139     0.2936      1.008
   140         CT      9    GLU     CA    140     0.0397      12.01
   141         H1      9    GLU     HA    141     0.1105      1.008
   142         CT      9    GLU     CB    142      0.056      12.01
   143         HC      9    GLU    HB1    143    -0.0173      1.008
   144         HC      9    GLU    HB2    144    -0.0173      1.008
   145         CT      9    GLU     CG    145     0.0136      12.01
   146         HC      9    GLU    HG1    146    -0.0425      1.008
   147         HC      9    GLU    HG2    147    -0.0425      1.008
   148          C      9    GLU     CD    148     0.8054      12.01
   149         O2      9    GLU    OE1    149    -0.8188         16
   150         O2      9    GLU    OE2    150    -0.8188         16
   151          C      9    GLU      C    151     0.5366      12.01
   152          O      9    GLU      O    152    -0.5819         16   ; qtot 1
; residue  10 LYS rtp LYS  q +1.0
   153          N     10    LYS      N    153    -0.3479      14.01
   154          H     10    LYS      H    154     0.2747      1.008
   155         CT     10    LYS     CA    155      -0.24      12.01
   156         H1     10    LYS     HA    156     0.1426      1.008
   157         CT     10    LYS     CB    157    -0.0094      12.01
   158         HC     10    LYS    HB1    158     0.0362      1.008
   159         HC     10    LYS    HB2    159     0.0362      1.008
   160         CT     10    LYS     CG    160     0.0187      12.01
   161         HC     10    LYS    HG1    161     0.0103      1.008
   162         HC     10    LYS    HG2    162     0.0103      1.008
   163         CT     10    LYS     CD    163    -0.0479      12.01
   164         HC     10    LYS    HD1    164     0.0621      1.008
   165         HC     10    LYS    HD2    165     0.0621      1.008
   166         CT     10    LYS     CE    166    -0.0143      12.01
   167         HP     10    LYS    HE1    167     0.1135      1.008
   168         HP     10    LYS    HE2    168     0.1135      1.008
   169         N3     10    LYS     NZ    169    -0.3854      14.01
   170          H     10    LYS    HZ1    170       0.34      1.008
   171          H     10    LYS    HZ2    171       0.34      1.008
   172          H     10    LYS    HZ3    172       0.34      1.008
   173          C     10    LYS      C    173     0.7341      12.01
   174          O     10    LYS      O    174    -0.5894         16   ; qtot 2
; residue  11 GLY rtp GLY  q  0.0
   175          N     11    GLY      N    175    -0.4157      14.01
   176          H     11    GLY      H    176     0.2719      1.008
   177         CT     11    GLY     CA    177    -0.0252      12.01
   178         H1     11    GLY    HA1    178     0.0698      1.008
   179         H1     11    GLY    HA2    179     0.0698      1.008
   180          C     11    GLY      C    180     0.5973      12.01
   181          O     11    GLY      O    181    -0.5679         16   ; qtot 2
; residue  12 TYR rtp TYR  q  0.0
   182          N     12    TYR      N    182    -0.4157      14.01
   183          H     12    TYR      H    183     0.2719      1.008
   184         CT     12    TYR     CA    184    -0.0014      12.01
   185         H1     12    TYR     HA    185     0.0876      1.008
   186         CT     12    TYR     CB    186    -0.0152      12.01
   187         HC     12    TYR    HB1    187     0.0295      1.008
   188         HC     12    TYR    HB2    188     0.0295      1.008
   189         CA     12    TYR     CG    189    -0.0011      12.01
   190         CA     12    TYR    CD1    190    -0.1906      12.01
   191         HA     12    TYR    HD1    191     0.1699      1.008
   192         CA     12    TYR    CE1    192    -0.2341      12.01
   193         HA     12    TYR    HE1    193     0.1656      1.008
   194          C     12    TYR     CZ    194     0.3226      12.01
   195         OH     12    TYR     OH    195    -0.5579         16
   196         HO     12    TYR     HH    196     0.3992      1.008
   197         CA     12    TYR    CE2    197    -0.2341      12.01
   198         HA     12    TYR    HE2    198     0.1656      1.008
   199         CA     12    TYR    CD2    199    -0.1906      12.01
   200         HA     12    TYR    HD2    200     0.1699      1.008
   201          C     12    TYR      C    201     0.5973      12.01
   202          O     12    TYR      O    202    -0.5679         16   ; qtot 2
; residue  13 VAL rtp VAL  q  0.0
   203          N     13    VAL      N    203    -0.4157      14.01
   204          H     13    VAL      H    204     0.2719      1.008
   205         CT     13    VAL     CA    205    -0.0875      12.01
   206         H1     13    VAL     HA    206     0.0969      1.008
   207         CT     13    VAL     CB    207     0.2985      12.01
   208         HC     13    VAL     HB    208    -0.0297      1.008
   209         CT     13    VAL    CG1    209    -0.3192      12.01
   210         HC     13    VAL   HG11    210     0.0791      1.008
   211         HC     13    VAL   HG12    211     0.0791      1.008
   212         HC     13    VAL   HG13    212     0.0791      1.008
   213         CT     13    VAL    CG2    213    -0.3192      12.01
   214         HC     13    VAL   HG21    214     0.0791      1.008
   215         HC     13    VAL   HG22    215     0.0791      1.008
   216         HC     13    VAL   HG23    216     0.0791      1.008
   217          C     13    VAL      C    217     0.5973      12.01
   218          O     13    VAL      O    218    -0.5679         16   ; qtot 2
; residue  14 THR rtp THR  q  0.0
   219          N     14    THR      N    219    -0.4157      14.01
   220          H     14    THR      H    220     0.2719      1.008
   221         CT     14    THR     CA    221    -0.0389      12.01
   222         H1     14    THR     HA    222     0.1007      1.008
   223         CT     14    THR     CB    223     0.3654      12.01
   224         H1     14    THR     HB    224     0.0043      1.008
   225         CT     14    THR    CG2    225    -0.2438      12.01
   226         HC     14    THR   HG21    226     0.0642      1.008
   227         HC     14    THR   HG22    227     0.0642      1.008
   228         HC     14    THR   HG23    228     0.0642      1.008
   229         OH     14    THR    OG1    229    -0.6761         16
   230         HO     14    THR    HG1    230     0.4102      1.008
   231          C     14    THR      C    231     0.5973      12.01
   232          O     14    THR      O    232    -0.5679         16   ; qtot 2
; residue  15 PRO rtp PRO  q  0.0
   233          N     15    PRO      N    233    -0.2548      14.01
   234         CT     15    PRO     CD    234     0.0192      12.01
   235         H1     15    PRO    HD1    235     0.0391      1.008
   236         H1     15    PRO    HD2    236     0.0391      1.008
   237         CT     15    PRO     CG    237     0.0189      12.01
   238         HC     15    PRO    HG1    238     0.0213      1.008
   239         HC     15    PRO    HG2    239     0.0213      1.008
   240         CT     15    PRO     CB    240     -0.007      12.01
   241         HC     15    PRO    HB1    241     0.0253      1.008
   242         HC     15    PRO    HB2    242     0.0253      1.008
   243         CT     15    PRO     CA    243    -0.0266      12.01
   244         H1     15    PRO     HA    244     0.0641      1.008
   245          C     15    PRO      C    245     0.5896      12.01
   246          O     15    PRO      O    246    -0.5748         16   ; qtot 2
; residue  16 VAL rtp VAL  q  0.0
   247          N     16    VAL      N    247    -0.4157      14.01
   248          H     16    VAL      H    248     0.2719      1.008
   249         CT     16    VAL     CA    249    -0.0875      12.01
   250         H1     16    VAL     HA    250     0.0969      1.008
   251         CT     16    VAL     CB    251     0.2985      12.01
   252         HC     16    VAL     HB    252    -0.0297      1.008
   253         CT     16    VAL    CG1    253    -0.3192      12.01
   254         HC     16    VAL   HG11    254     0.0791      1.008
   255         HC     16    VAL   HG12    255     0.0791      1.008
   256         HC     16    VAL   HG13    256     0.0791      1.008
   257         CT     16    VAL    CG2    257    -0.3192      12.01
   258         HC     16    VAL   HG21    258     0.0791      1.008
   259         HC     16    VAL   HG22    259     0.0791      1.008
   260         HC     16    VAL   HG23    260     0.0791      1.008
   261          C     16    VAL      C    261     0.5973      12.01
   262          O     16    VAL      O    262    -0.5679         16   ; qtot 2
; residue  17 LYS rtp LYS  q +1.0
   263          N     17    LYS      N    263    -0.3479      14.01
   264          H     17    LYS      H    264     0.2747      1.008
   265         CT     17    LYS     CA    265      -0.24      12.01
   266         H1     17    LYS     HA    266     0.1426      1.008
   267         CT     17    LYS     CB    267    -0.0094      12.01
   268         HC     17    LYS    HB1    268     0.0362      1.008
   269         HC     17    LYS    HB2    269     0.0362      1.008
   270         CT     17    LYS     CG    270     0.0187      12.01
   271         HC     17    LYS    HG1    271     0.0103      1.008
   272         HC     17    LYS    HG2    272     0.0103      1.008
   273         CT     17    LYS     CD    273    -0.0479      12.01
   274         HC     17    LYS    HD1    274     0.0621      1.008
   275         HC     17    LYS    HD2    275     0.0621      1.008
   276         CT     17    LYS     CE    276    -0.0143      12.01
   277         HP     17    LYS    HE1    277     0.1135      1.008
   278         HP     17    LYS    HE2    278     0.1135      1.008
   279         N3     17    LYS     NZ    279    -0.3854      14.01
   280          H     17    LYS    HZ1    280       0.34      1.008
   281          H     17    LYS    HZ2    281       0.34      1.008
   282          H     17    LYS    HZ3    282       0.34      1.008
   283          C     17    LYS      C    283     0.7341      12.01
   284          O     17    LYS      O    284    -0.5894         16   ; qtot 3
; residue  18 ASN rtp ASN  q  0.0
   285          N     18    ASN      N    285    -0.4157      14.01
   286          H     18    ASN      H    286     0.2719      1.008
   287         CT     18    ASN     CA    287     0.0143      12.01
   288         H1     18    ASN     HA    288     0.1048      1.008
   289         CT     18    ASN     CB    289    -0.2041      12.01
   290         HC     18    ASN    HB1    290     0.0797      1.008
   291         HC     18    ASN    HB2    291     0.0797      1.008
   292          C     18    ASN     CG    292      0.713      12.01
   293          O     18    ASN    OD1    293    -0.5931         16
   294          N     18    ASN    ND2    294    -0.9191      14.01
   295          H     18    ASN   HD21    295     0.4196      1.008
   296          H     18    ASN   HD22    296     0.4196      1.008
   297          C     18    ASN      C    297     0.5973      12.01
   298          O     18    ASN      O    298    -0.5679         16   ; qtot 3
; residue  19 GLN rtp GLN  q  0.0
   299          N     19    GLN      N    299    -0.4157      14.01
   300          H     19    GLN      H    300     0.2719      1.008
   301         CT     19    GLN     CA    301    -0.0031      12.01
   302         H1     19    GLN     HA    302      0.085      1.008
   303         CT     19    GLN     CB    303    -0.0036      12.01
   304         HC     19    GLN    HB1    304     0.0171      1.008
   305         HC     19    GLN    HB2    305     0.0171      1.008
   306         CT     19    GLN     CG    306    -0.0645      12.01
   307         HC     19    GLN    HG1    307     0.0352      1.008
   308         HC     19    GLN    HG2    308     0.0352      1.008
   309          C     19    GLN     CD    309     0.6951      12.01
   310          O     19    GLN    OE1    310    -0.6086         16
   311          N     19    GLN    NE2    311    -0.9407      14.01
   312          H     19    GLN   HE21    312     0.4251      1.008
   313          H     19    GLN   HE22    313     0.4251      1.008
   314          C     19    GLN      C    314     0.5973      12.01
   315          O     19    GLN      O    315    -0.5679         16   ; qtot 3
; residue  20 GLY rtp GLY  q  0.0
   316          N     20    GLY      N    316    -0.4157      14.01
   317          H     20    GLY      H    317     0.2719      1.008
   318         CT     20    GLY     CA    318    -0.0252      12.01
   319         H1     20    GLY    HA1    319     0.0698      1.008
   320         H1     20    GLY    HA2    320     0.0698      1.008
   321          C     20    GLY      C    321     0.5973      12.01
   322          O     20    GLY      O    322    -0.5679         16   ; qtot 3
; residue  21 GLN rtp GLN  q  0.0
   323          N     21    GLN      N    323    -0.4157      14.01
   324          H     21    GLN      H    324     0.2719      1.008
   325         CT     21    GLN     CA    325    -0.0031      12.01
   326         H1     21    GLN     HA    326      0.085      1.008
   327         CT     21    GLN     CB    327    -0.0036      12.01
   328         HC     21    GLN    HB1    328     0.0171      1.008
   329         HC     21    GLN    HB2    329     0.0171      1.008
   330         CT     21    GLN     CG    330    -0.0645      12.01
   331         HC     21    GLN    HG1    331     0.0352      1.008
   332         HC     21    GLN    HG2    332     0.0352      1.008
   333          C     21    GLN     CD    333     0.6951      12.01
   334          O     21    GLN    OE1    334    -0.6086         16
   335          N     21    GLN    NE2    335    -0.9407      14.01
   336          H     21    GLN   HE21    336     0.4251      1.008
   337          H     21    GLN   HE22    337     0.4251      1.008
   338          C     21    GLN      C    338     0.5973      12.01
   339          O     21    GLN      O    339    -0.5679         16   ; qtot 3
; residue  22 CYS rtp CYS  q  0.0
   340          N     22    CYS      N    340    -0.4157      14.01
   341          H     22    CYS      H    341     0.2719      1.008
   342         CT     22    CYS     CA    342     0.0213      12.01
   343         H1     22    CYS     HA    343     0.1124      1.008
   344         CT     22    CYS     CB    344    -0.1231      12.01
   345         H1     22    CYS    HB1    345     0.1112      1.008
   346         H1     22    CYS    HB2    346     0.1112      1.008
   347         SH     22    CYS     SG    347    -0.3119      32.06
   348         HS     22    CYS     HG    348     0.1933      1.008
   349          C     22    CYS      C    349     0.5973      12.01
   350          O     22    CYS      O    350    -0.5679         16   ; qtot 3
; residue  23 GLY rtp GLY  q  0.0
   351          N     23    GLY      N    351    -0.4157      14.01
   352          H     23    GLY      H    352     0.2719      1.008
   353         CT     23    GLY     CA    353    -0.0252      12.01
   354         H1     23    GLY    HA1    354     0.0698      1.008
   355         H1     23    GLY    HA2    355     0.0698      1.008
   356          C     23    GLY      C    356     0.5973      12.01
   357          O     23    GLY      O    357    -0.5679         16   ; qtot 3
; residue  24 SER rtp CSER q -1.0
   358          N     24    SER      N    358    -0.3821      14.01
   359          H     24    SER      H    359     0.2681      1.008
   360         CT     24    SER     CA    360    -0.2722      12.01
   361         H1     24    SER     HA    361     0.1304      1.008
   362         CT     24    SER     CB    362     0.1123      12.01
   363         H1     24    SER    HB1    363     0.0813      1.008
   364         H1     24    SER    HB2    364     0.0813      1.008
   365         OH     24    SER     OG    365    -0.6514         16
   366         HO     24    SER     HG    366     0.4474      1.008
   367          C     24    SER      C    367     0.8113      12.01
   368         O2     24    SER    OC1    368    -0.8132         16
   369         O2     24    SER    OC2    369    -0.8132         16   ; qtot 2

[ bonds ]
;  ai    aj funct            c0            c1            c2            c3
    1     2     1 
    1     3     1 
    1     4     1 
    1     5     1 
    5     6     1 
    5     7     1 
    5    11     1 
    7     8     1 
    7     9     1 
    7    10     1 
   11    12     1 
   11    13     1 
   13    14     1 
   13    23     1 
   14    15     1 
   14    16     1 
   14    17     1 
   17    18     1 
   17    19     1 
   17    20     1 
   20    21     1 
   20    22     1 
   20    23     1 
   23    24     1 
   23    25     1 
   25    26     1 
   25    27     1 
   27    28     1 
   27    29     1 
   29    30     1 
   29    31     1 
   29    49     1 
   31    32     1 
   31    33     1 
   31    34     1 
   34    35     1 
   34    36     1 
   34    37     1 
   37    38     1 
   37    39     1 
   37    40     1 
   40    41     1 
   40    42     1 
   42    43     1 
   42    46     1 
   43    44     1 
   43    45     1 
   46    47     1 
   46    48     1 
   49    50     1 
   49    51     1 
   51    52     1 
   51    53     1 
   53    54     1 
   53    55     1 
   53    60     1 
   55    56     1 
   55    57     1 
   55    58     1 
   58    59     1 
   60    61     1 
   60    62     1 
   62    63     1 
   62    64     1 
   64    65     1 
   64    66     1 
   64    76     1 
   66    67     1 
   66    68     1 
   66    72     1 
   68    69     1 
   68    70     1 
   68    71     1 
   72    73     1 
   72    74     1 
   72    75     1 
   76    77     1 
   76    78     1 
   78    79     1 
   78    80     1 
   80    81     1 
   80    82     1 
   80    88     1 
   82    83     1 
   82    84     1 
   82    85     1 
   85    86     1 
   85    87     1 
   88    89     1 
   88    90     1 
   90    91     1 
   90    92     1 
   92    93     1 
   92    94     1 
   92   112     1 
   94    95     1 
   94    96     1 
   94    97     1 
   97    98     1 
   97   111     1 
   98    99     1 
   98   100     1 
  100   101     1 
  100   102     1 
  102   103     1 
  102   111     1 
  103   104     1 
  103   105     1 
  105   106     1 
  105   107     1 
  107   108     1 
  107   109     1 
  109   110     1 
  109   111     1 
  112   113     1 
  112   114     1 
  114   115     1 
  114   116     1 
  116   117     1 
  116   118     1 
  116   136     1 
  118   119     1 
  118   120     1 
  118   121     1 
  121   122     1 
  121   123     1 
  121   124     1 
  124   125     1 
  124   126     1 
  124   127     1 
  127   128     1 
  127   129     1 
  129   130     1 
  129   133     1 
  130   131     1 
  130   132     1 
  133   134     1 
  133   135     1 
  136   137     1 
  136   138     1 
  138   139     1 
  138   140     1 
  140   141     1 
  140   142     1 
  140   151     1 
  142   143     1 
  142   144     1 
  142   145     1 
  145   146     1 
  145   147     1 
  145   148     1 
  148   149     1 
  148   150     1 
  151   152     1 
  151   153     1 
  153   154     1 
  153   155     1 
  155   156     1 
  155   157     1 
  155   173     1 
  157   158     1 
  157   159     1 
  157   160     1 
  160   161     1 
  160   162     1 
  160   163     1 
  163   164     1 
  163   165     1 
  163   166     1 
  166   167     1 
  166   168     1 
  166   169     1 
  169   170     1 
  169   171     1 
  169   172     1 
  173   174     1 
  173   175     1 
  175   176     1 
  175   177     1 
  177   178     1 
  177   179     1 
  177   180     1 
  180   181     1 
  180   182     1 
  182   183     1 
  182   184     1 
  184   185     1 
  184   186     1 
  184   201     1 
  186   187     1 
  186   188     1 
  186   189     1 
  189   190     1 
  189   199     1 
  190   191     1 
  190   192     1 
  192   193     1 
  192   194     1 
  194   195     1 
  194   197     1 
  195   196     1 
  197   198     1 
  197   199     1 
  199   200     1 
  201   202     1 
  201   203     1 
  203   204     1 
  203   205     1 
  205   206     1 
  205   207     1 
  205   217     1 
  207   208     1 
  207   209     1 
  207   213     1 
  209   210     1 
  209   211     1 
  209   212     1 
  213   214     1 
  213   215     1 
  213   216     1 
  217   218     1 
  217   219     1 
  219   220     1 
  219   221     1 
  221   222     1 
  221   223     1 
  221   231     1 
  223   224     1 
  223   225     1 
  223   229     1 
  225   226     1 
  225   227     1 
  225   228     1 
  229   230     1 
  231   232     1 
  231   233     1 
  233   234     1 
  233   243     1 
  234   235     1 
  234   236     1 
  234   237     1 
  237   238     1 
  237   239     1 
  237   240     1 
  240   241     1 
  240   242     1 
  240   243     1 
  243   244     1 
  243   245     1 
  245   246     1 
  245   247     1 
  247   248     1 
  247   249     1 
  249   250     1 
  249   251     1 
  249   261     1 
  251   252     1 
  251   253     1 
  251   257     1 
  253   254     1 
  253   255     1 
  253   256     1 
  257   258     1 
  257   259     1 
  257   260     1 
  261   262     1 
  261   263     1 
  263   264     1 
  263   265     1 
  265   266     1 
  265   267     1 
  265   283     1 
  267   268     1 
  267   269     1 
  267   270     1 
  270   271     1 
  270   272     1 
  270   273     1 
  273   274     1 
  273   275     1 
  273   276     1 
  276   277     1 
  276   278     1 
  276   279     1 
  279   280     1 
  279   281     1 
  279   282     1 
  283   284     1 
  283   285     1 
  285   286     1 
  285   287     1 
  287   288     1 
  287   289     1 
  287   297     1 
  289   290     1 
  289   291     1 
  289   292     1 
  292   293     1 
  292   294     1 
  294   295     1 
  294   296     1 
  297   298     1 
  297   299     1 
  299   300     1 
  299   301     1 
  301   302     1 
  301   303     1 
  301   314     1 
  303   304     1 
  303   305     1 
  303   306     1 
  306   307     1 
  306   308     1 
  306   309     1 
  309   310     1 
  309   311     1 
  311   312     1 
  311   313     1 
  314   315     1 
  314   316     1 
  316   317     1 
  316   318     1 
  318   319     1 
  318   320     1 
  318   321     1 
  321   322     1 
  321   323     1 
  323   324     1 
  323   325     1 
  325   326     1 
  325   327     1 
  325   338     1 
  327   328     1 
  327   329     1 
  327   330     1 
  330   331     1 
  330   332     1 
  330   333     1 
  333   334     1 
  333   335     1 
  335   336     1 
  335   337     1 
  338   339     1 
  338   340     1 
  340   341     1 
  340   342     1 
  342   343     1 
  342   344     1 
  342   349     1 
  344   345     1 
  344   346     1 
  344   347     1 
  347   348     1 
  349   350     1 
  349   351     1 
  351   352     1 
  351   353     1 
  353   354     1 
  353   355     1 
  353   356     1 
  356   357     1 
  356   358     1 
  358   359     1 
  358   360     1 
  360   361     1 
  360   362     1 
  360   367     1 
  362   363     1 
  362   364     1 
  362   365     1 
  365   366     1 
  367   368     1 
  367   369     1 

[ pairs ]
;  ai    aj funct            c0            c1            c2            c3
    1     8     1 
    1     9     1 
    1    10     1 
    1    12     1 
    1    13     1 
    2     6     1 
    2     7     1 
    2    11     1 
    3     6     1 
    3     7     1 
    3    11     1 
    4     6     1 
    4     7     1 
    4    11     1 
    5    14     1 
    5    23     1 
    6     8     1 
    6     9     1 
    6    10     1 
    6    12     1 
    6    13     1 
    7    12     1 
    7    13     1 
    8    11     1 
    9    11     1 
   10    11     1 
   11    15     1 
   11    16     1 
   11    17     1 
   11    20     1 
   11    24     1 
   11    25     1 
   12    14     1 
   12    23     1 
   13    18     1 
   13    19     1 
   13    21     1 
   13    22     1 
   13    26     1 
   13    27     1 
   14    21     1 
   14    22     1 
   14    24     1 
   14    25     1 
   15    18     1 
   15    19     1 
   15    20     1 
   15    23     1 
   16    18     1 
   16    19     1 
   16    20     1 
   16    23     1 
   17    24     1 
   17    25     1 
   18    21     1 
   18    22     1 
   18    23     1 
   19    21     1 
   19    22     1 
   19    23     1 
   20    26     1 
   20    27     1 
   21    24     1 
   21    25     1 
   22    24     1 
   22    25     1 
   23    28     1 
   23    29     1 
   24    26     1 
   24    27     1 
   25    30     1 
   25    31     1 
   25    49     1 
   26    28     1 
   26    29     1 
   27    32     1 
   27    33     1 
   27    34     1 
   27    50     1 
   27    51     1 
   28    30     1 
   28    31     1 
   28    49     1 
   29    35     1 
   29    36     1 
   29    37     1 
   29    52     1 
   29    53     1 
   30    32     1 
   30    33     1 
   30    34     1 
   30    50     1 
   30    51     1 
   31    38     1 
   31    39     1 
   31    40     1 
   31    50     1 
   31    51     1 
   32    35     1 
   32    36     1 
   32    37     1 
   32    49     1 
   33    35     1 
   33    36     1 
   33    37     1 
   33    49     1 
   34    41     1 
   34    42     1 
   34    49     1 
   35    38     1 
   35    39     1 
   35    40     1 
   36    38     1 
   36    39     1 
   36    40     1 
   37    43     1 
   37    46     1 
   38    41     1 
   38    42     1 
   39    41     1 
   39    42     1 
   40    44     1 
   40    45     1 
   40    47     1 
   40    48     1 
   41    43     1 
   41    46     1 
   43    47     1 
   43    48     1 
   44    46     1 
   45    46     1 
   49    54     1 
   49    55     1 
   49    60     1 
   50    52     1 
   50    53     1 
   51    56     1 
   51    57     1 
   51    58     1 
   51    61     1 
   51    62     1 
   52    54     1 
   52    55     1 
   52    60     1 
   53    59     1 
   53    63     1 
   53    64     1 
   54    56     1 
   54    57     1 
   54    58     1 
   54    61     1 
   54    62     1 
   55    61     1 
   55    62     1 
   56    59     1 
   56    60     1 
   57    59     1 
   57    60     1 
   58    60     1 
   60    65     1 
   60    66     1 
   60    76     1 
   61    63     1 
   61    64     1 
   62    67     1 
   62    68     1 
   62    72     1 
   62    77     1 
   62    78     1 
   63    65     1 
   63    66     1 
   63    76     1 
   64    69     1 
   64    70     1 
   64    71     1 
   64    73     1 
   64    74     1 
   64    75     1 
   64    79     1 
   64    80     1 
   65    67     1 
   65    68     1 
   65    72     1 
   65    77     1 
   65    78     1 
   66    77     1 
   66    78     1 
   67    69     1 
   67    70     1 
   67    71     1 
   67    73     1 
   67    74     1 
   67    75     1 
   67    76     1 
   68    73     1 
   68    74     1 
   68    75     1 
   68    76     1 
   69    72     1 
   70    72     1 
   71    72     1 
   72    76     1 
   76    81     1 
   76    82     1 
   76    88     1 
   77    79     1 
   77    80     1 
   78    83     1 
   78    84     1 
   78    85     1 
   78    89     1 
   78    90     1 
   79    81     1 
   79    82     1 
   79    88     1 
   80    86     1 
   80    87     1 
   80    91     1 
   80    92     1 
   81    83     1 
   81    84     1 
   81    85     1 
   81    89     1 
   81    90     1 
   82    89     1 
   82    90     1 
   83    86     1 
   83    87     1 
   83    88     1 
   84    86     1 
   84    87     1 
   84    88     1 
   85    88     1 
   88    93     1 
   88    94     1 
   88   112     1 
   89    91     1 
   89    92     1 
   90    95     1 
   90    96     1 
   90    97     1 
   90   113     1 
   90   114     1 
   91    93     1 
   91    94     1 
   91   112     1 
   92    98     1 
   92   111     1 
   92   115     1 
   92   116     1 
   93    95     1 
   93    96     1 
   93    97     1 
   93   113     1 
   93   114     1 
   94    99     1 
   94   100     1 
   94   102     1 
   94   109     1 
   94   113     1 
   94   114     1 
   95    98     1 
   95   111     1 
   95   112     1 
   96    98     1 
   96   111     1 
   96   112     1 
   97   101     1 
   97   103     1 
   97   107     1 
   97   110     1 
   97   112     1 
   98   103     1 
   98   109     1 
   99   101     1 
   99   102     1 
   99   111     1 
  100   104     1 
  100   105     1 
  100   109     1 
  101   103     1 
  101   111     1 
  102   106     1 
  102   107     1 
  102   110     1 
  103   108     1 
  103   109     1 
  104   106     1 
  104   107     1 
  104   111     1 
  105   110     1 
  105   111     1 
  106   108     1 
  106   109     1 
  108   110     1 
  108   111     1 
  112   117     1 
  112   118     1 
  112   136     1 
  113   115     1 
  113   116     1 
  114   119     1 
  114   120     1 
  114   121     1 
  114   137     1 
  114   138     1 
  115   117     1 
  115   118     1 
  115   136     1 
  116   122     1 
  116   123     1 
  116   124     1 
  116   139     1 
  116   140     1 
  117   119     1 
  117   120     1 
  117   121     1 
  117   137     1 
  117   138     1 
  118   125     1 
  118   126     1 
  118   127     1 
  118   137     1 
  118   138     1 
  119   122     1 
  119   123     1 
  119   124     1 
  119   136     1 
  120   122     1 
  120   123     1 
  120   124     1 
  120   136     1 
  121   128     1 
  121   129     1 
  121   136     1 
  122   125     1 
  122   126     1 
  122   127     1 
  123   125     1 
  123   126     1 
  123   127     1 
  124   130     1 
  124   133     1 
  125   128     1 
  125   129     1 
  126   128     1 
  126   129     1 
  127   131     1 
  127   132     1 
  127   134     1 
  127   135     1 
  128   130     1 
  128   133     1 
  130   134     1 
  130   135     1 
  131   133     1 
  132   133     1 
  136   141     1 
  136   142     1 
  136   151     1 
  137   139     1 
  137   140     1 
  138   143     1 
  138   144     1 
  138   145     1 
  138   152     1 
  138   153     1 
  139   141     1 
  139   142     1 
  139   151     1 
  140   146     1 
  140   147     1 
  140   148     1 
  140   154     1 
  140   155     1 
  141   143     1 
  141   144     1 
  141   145     1 
  141   152     1 
  141   153     1 
  142   149     1 
  142   150     1 
  142   152     1 
  142   153     1 
  143   146     1 
  143   147     1 
  143   148     1 
  143   151     1 
  144   146     1 
  144   147     1 
  144   148     1 
  144   151     1 
  145   151     1 
  146   149     1 
  146   150     1 
  147   149     1 
  147   150     1 
  151   156     1 
  151   157     1 
  151   173     1 
  152   154     1 
  152   155     1 
  153   158     1 
  153   159     1 
  153   160     1 
  153   174     1 
  153   175     1 
  154   156     1 
  154   157     1 
  154   173     1 
  155   161     1 
  155   162     1 
  155   163     1 
  155   176     1 
  155   177     1 
  156   158     1 
  156   159     1 
  156   160     1 
  156   174     1 
  156   175     1 
  157   164     1 
  157   165     1 
  157   166     1 
  157   174     1 
  157   175     1 
  158   161     1 
  158   162     1 
  158   163     1 
  158   173     1 
  159   161     1 
  159   162     1 
  159   163     1 
  159   173     1 
  160   167     1 
  160   168     1 
  160   169     1 
  160   173     1 
  161   164     1 
  161   165     1 
  161   166     1 
  162   164     1 
  162   165     1 
  162   166     1 
  163   170     1 
  163   171     1 
  163   172     1 
  164   167     1 
  164   168     1 
  164   169     1 
  165   167     1 
  165   168     1 
  165   169     1 
  167   170     1 
  167   171     1 
  167   172     1 
  168   170     1 
  168   171     1 
  168   172     1 
  173   178     1 
  173   179     1 
  173   180     1 
  174   176     1 
  174   177     1 
  175   181     1 
  175   182     1 
  176   178     1 
  176   179     1 
  176   180     1 
  177   183     1 
  177   184     1 
  178   181     1 
  178   182     1 
  179   181     1 
  179   182     1 
  180   185     1 
  180   186     1 
  180   201     1 
  181   183     1 
  181   184     1 
  182   187     1 
  182   188     1 
  182   189     1 
  182   202     1 
  182   203     1 
  183   185     1 
  183   186     1 
  183   201     1 
  184   190     1 
  184   199     1 
  184   204     1 
  184   205     1 
  185   187     1 
  185   188     1 
  185   189     1 
  185   202     1 
  185   203     1 
  186   191     1 
  186   192     1 
  186   197     1 
  186   200     1 
  186   202     1 
  186   203     1 
  187   190     1 
  187   199     1 
  187   201     1 
  188   190     1 
  188   199     1 
  188   201     1 
  189   193     1 
  189   194     1 
  189   198     1 
  189   201     1 
  190   195     1 
  190   197     1 
  190   200     1 
  191   193     1 
  191   194     1 
  191   199     1 
  192   196     1 
  192   198     1 
  192   199     1 
  193   195     1 
  193   197     1 
  194   200     1 
  195   198     1 
  195   199     1 
  196   197     1 
  198   200     1 
  201   206     1 
  201   207     1 
  201   217     1 
  202   204     1 
  202   205     1 
  203   208     1 
  203   209     1 
  203   213     1 
  203   218     1 
  203   219     1 
  204   206     1 
  204   207     1 
  204   217     1 
  205   210     1 
  205   211     1 
  205   212     1 
  205   214     1 
  205   215     1 
  205   216     1 
  205   220     1 
  205   221     1 
  206   208     1 
  206   209     1 
  206   213     1 
  206   218     1 
  206   219     1 
  207   218     1 
  207   219     1 
  208   210     1 
  208   211     1 
  208   212     1 
  208   214     1 
  208   215     1 
  208   216     1 
  208   217     1 
  209   214     1 
  209   215     1 
  209   216     1 
  209   217     1 
  210   213     1 
  211   213     1 
  212   213     1 
  213   217     1 
  217   222     1 
  217   223     1 
  217   231     1 
  218   220     1 
  218   221     1 
  219   224     1 
  219   225     1 
  219   229     1 
  219   232     1 
  219   233     1 
  220   222     1 
  220   223     1 
  220   231     1 
  221   226     1 
  221   227     1 
  221   228     1 
  221   230     1 
  221   234     1 
  221   243     1 
  222   224     1 
  222   225     1 
  222   229     1 
  222   232     1 
  222   233     1 
  223   232     1 
  223   233     1 
  224   226     1 
  224   227     1 
  224   228     1 
  224   230     1 
  224   231     1 
  225   230     1 
  225   231     1 
  226   229     1 
  227   229     1 
  228   229     1 
  229   231     1 
  231   235     1 
  231   236     1 
  231   237     1 
  231   240     1 
  231   244     1 
  231   245     1 
  232   234     1 
  232   243     1 
  233   238     1 
  233   239     1 
  233   241     1 
  233   242     1 
  233   246     1 
  233   247     1 
  234   241     1 
  234   242     1 
  234   244     1 
  234   245     1 
  235   238     1 
  235   239     1 
  235   240     1 
  235   243     1 
  236   238     1 
  236   239     1 
  236   240     1 
  236   243     1 
  237   244     1 
  237   245     1 
  238   241     1 
  238   242     1 
  238   243     1 
  239   241     1 
  239   242     1 
  239   243     1 
  240   246     1 
  240   247     1 
  241   244     1 
  241   245     1 
  242   244     1 
  242   245     1 
  243   248     1 
  243   249     1 
  244   246     1 
  244   247     1 
  245   250     1 
  245   251     1 
  245   261     1 
  246   248     1 
  246   249     1 
  247   252     1 
  247   253     1 
  247   257     1 
  247   262     1 
  247   263     1 
  248   250     1 
  248   251     1 
  248   261     1 
  249   254     1 
  249   255     1 
  249   256     1 
  249   258     1 
  249   259     1 
  249   260     1 
  249   264     1 
  249   265     1 
  250   252     1 
  250   253     1 
  250   257     1 
  250   262     1 
  250   263     1 
  251   262     1 
  251   263     1 
  252   254     1 
  252   255     1 
  252   256     1 
  252   258     1 
  252   259     1 
  252   260     1 
  252   261     1 
  253   258     1 
  253   259     1 
  253   260     1 
  253   261     1 
  254   257     1 
  255   257     1 
  256   257     1 
  257   261     1 
  261   266     1 
  261   267     1 
  261   283     1 
  262   264     1 
  262   265     1 
  263   268     1 
  263   269     1 
  263   270     1 
  263   284     1 
  263   285     1 
  264   266     1 
  264   267     1 
  264   283     1 
  265   271     1 
  265   272     1 
  265   273     1 
  265   286     1 
  265   287     1 
  266   268     1 
  266   269     1 
  266   270     1 
  266   284     1 
  266   285     1 
  267   274     1 
  267   275     1 
  267   276     1 
  267   284     1 
  267   285     1 
  268   271     1 
  268   272     1 
  268   273     1 
  268   283     1 
  269   271     1 
  269   272     1 
  269   273     1 
  269   283     1 
  270   277     1 
  270   278     1 
  270   279     1 
  270   283     1 
  271   274     1 
  271   275     1 
  271   276     1 
  272   274     1 
  272   275     1 
  272   276     1 
  273   280     1 
  273   281     1 
  273   282     1 
  274   277     1 
  274   278     1 
  274   279     1 
  275   277     1 
  275   278     1 
  275   279     1 
  277   280     1 
  277   281     1 
  277   282     1 
  278   280     1 
  278   281     1 
  278   282     1 
  283   288     1 
  283   289     1 
  283   297     1 
  284   286     1 
  284   287     1 
  285   290     1 
  285   291     1 
  285   292     1 
  285   298     1 
  285   299     1 
  286   288     1 
  286   289     1 
  286   297     1 
  287   293     1 
  287   294     1 
  287   300     1 
  287   301     1 
  288   290     1 
  288   291     1 
  288   292     1 
  288   298     1 
  288   299     1 
  289   295     1 
  289   296     1 
  289   298     1 
  289   299     1 
  290   293     1 
  290   294     1 
  290   297     1 
  291   293     1 
  291   294     1 
  291   297     1 
  292   297     1 
  293   295     1 
  293   296     1 
  297   302     1 
  297   303     1 
  297   314     1 
  298   300     1 
  298   301     1 
  299   304     1 
  299   305     1 
  299   306     1 
  299   315     1 
  299   316     1 
  300   302     1 
  300   303     1 
  300   314     1 
  301   307     1 
  301   308     1 
  301   309     1 
  301   317     1 
  301   318     1 
  302   304     1 
  302   305     1 
  302   306     1 
  302   315     1 
  302   316     1 
  303   310     1 
  303   311     1 
  303   315     1 
  303   316     1 
  304   307     1 
  304   308     1 
  304   309     1 
  304   314     1 
  305   307     1 
  305   308     1 
  305   309     1 
  305   314     1 
  306   312     1 
  306   313     1 
  306   314     1 
  307   310     1 
  307   311     1 
  308   310     1 
  308   311     1 
  310   312     1 
  310   313     1 
  314   319     1 
  314   320     1 
  314   321     1 
  315   317     1 
  315   318     1 
  316   322     1 
  316   323     1 
  317   319     1 
  317   320     1 
  317   321     1 
  318   324     1 
  318   325     1 
  319   322     1 
  319   323     1 
  320   322     1 
  320   323     1 
  321   326     1 
  321   327     1 
  321   338     1 
  322   324     1 
  322   325     1 
  323   328     1 
  323   329     1 
  323   330     1 
  323   339     1 
  323   340     1 
  324   326     1 
  324   327     1 
  324   338     1 
  325   331     1 
  325   332     1 
  325   333     1 
  325   341     1 
  325   342     1 
  326   328     1 
  326   329     1 
  326   330     1 
  326   339     1 
  326   340     1 
  327   334     1 
  327   335     1 
  327   339     1 
  327   340     1 
  328   331     1 
  328   332     1 
  328   333     1 
  328   338     1 
  329   331     1 
  329   332     1 
  329   333     1 
  329   338     1 
  330   336     1 
  330   337     1 
  330   338     1 
  331   334     1 
  331   335     1 
  332   334     1 
  332   335     1 
  334   336     1 
  334   337     1 
  338   343     1 
  338   344     1 
  338   349     1 
  339   341     1 
  339   342     1 
  340   345     1 
  340   346     1 
  340   347     1 
  340   350     1 
  340   351     1 
  341   343     1 
  341   344     1 
  341   349     1 
  342   348     1 
  342   352     1 
  342   353     1 
  343   345     1 
  343   346     1 
  343   347     1 
  343   350     1 
  343   351     1 
  344   350     1 
  344   351     1 
  345   348     1 
  345   349     1 
  346   348     1 
  346   349     1 
  347   349     1 
  349   354     1 
  349   355     1 
  349   356     1 
  350   352     1 
  350   353     1 
  351   357     1 
  351   358     1 
  352   354     1 
  352   355     1 
  352   356     1 
  353   359     1 
  353   360     1 
  354   357     1 
  354   358     1 
  355   357     1 
  355   358     1 
  356   361     1 
  356   362     1 
  356   367     1 
  357   359     1 
  357   360     1 
  358   363     1 
  358   364     1 
  358   365     1 
  358   368     1 
  358   369     1 
  359   361     1 
  359   362     1 
  359   367     1 
  360   366     1 
  361   363     1 
  361   364     1 
  361   365     1 
  361   368     1 
  361   369     1 
  362   368     1 
  362   369     1 
  363   366     1 
  363   367     1 
  364   366     1 
  364   367     1 
  365   367     1 

[ angles ]
;  ai    aj    ak funct            c0            c1            c2            c3
    2     1     3     1 
    2     1     4     1 
    2     1     5     1 
    3     1     4     1 
    3     1     5     1 
    4     1     5     1 
    1     5     6     1 
    1     5     7     1 
    1     5    11     1 
    6     5     7     1 
    6     5    11     1 
    7     5    11     1 
    5     7     8     1 
    5     7     9     1 
    5     7    10     1 
    8     7     9     1 
    8     7    10     1 
    9     7    10     1 
    5    11    12     1 
    5    11    13     1 
   12    11    13     1 
   11    13    14     1 
   11    13    23     1 
   14    13    23     1 
   13    14    15     1 
   13    14    16     1 
   13    14    17     1 
   15    14    16     1 
   15    14    17     1 
   16    14    17     1 
   14    17    18     1 
   14    17    19     1 
   14    17    20     1 
   18    17    19     1 
   18    17    20     1 
   19    17    20     1 
   17    20    21     1 
   17    20    22     1 
   17    20    23     1 
   21    20    22     1 
   21    20    23     1 
   22    20    23     1 
   13    23    20     1 
   13    23    24     1 
   13    23    25     1 
   20    23    24     1 
   20    23    25     1 
   24    23    25     1 
   23    25    26     1 
   23    25    27     1 
   26    25    27     1 
   25    27    28     1 
   25    27    29     1 
   28    27    29     1 
   27    29    30     1 
   27    29    31     1 
   27    29    49     1 
   30    29    31     1 
   30    29    49     1 
   31    29    49     1 
   29    31    32     1 
   29    31    33     1 
   29    31    34     1 
   32    31    33     1 
   32    31    34     1 
   33    31    34     1 
   31    34    35     1 
   31    34    36     1 
   31    34    37     1 
   35    34    36     1 
   35    34    37     1 
   36    34    37     1 
   34    37    38     1 
   34    37    39     1 
   34    37    40     1 
   38    37    39     1 
   38    37    40     1 
   39    37    40     1 
   37    40    41     1 
   37    40    42     1 
   41    40    42     1 
   40    42    43     1 
   40    42    46     1 
   43    42    46     1 
   42    43    44     1 
   42    43    45     1 
   44    43    45     1 
   42    46    47     1 
   42    46    48     1 
   47    46    48     1 
   29    49    50     1 
   29    49    51     1 
   50    49    51     1 
   49    51    52     1 
   49    51    53     1 
   52    51    53     1 
   51    53    54     1 
   51    53    55     1 
   51    53    60     1 
   54    53    55     1 
   54    53    60     1 
   55    53    60     1 
   53    55    56     1 
   53    55    57     1 
   53    55    58     1 
   56    55    57     1 
   56    55    58     1 
   57    55    58     1 
   55    58    59     1 
   53    60    61     1 
   53    60    62     1 
   61    60    62     1 
   60    62    63     1 
   60    62    64     1 
   63    62    64     1 
   62    64    65     1 
   62    64    66     1 
   62    64    76     1 
   65    64    66     1 
   65    64    76     1 
   66    64    76     1 
   64    66    67     1 
   64    66    68     1 
   64    66    72     1 
   67    66    68     1 
   67    66    72     1 
   68    66    72     1 
   66    68    69     1 
   66    68    70     1 
   66    68    71     1 
   69    68    70     1 
   69    68    71     1 
   70    68    71     1 
   66    72    73     1 
   66    72    74     1 
   66    72    75     1 
   73    72    74     1 
   73    72    75     1 
   74    72    75     1 
   64    76    77     1 
   64    76    78     1 
   77    76    78     1 
   76    78    79     1 
   76    78    80     1 
   79    78    80     1 
   78    80    81     1 
   78    80    82     1 
   78    80    88     1 
   81    80    82     1 
   81    80    88     1 
   82    80    88     1 
   80    82    83     1 
   80    82    84     1 
   80    82    85     1 
   83    82    84     1 
   83    82    85     1 
   84    82    85     1 
   82    85    86     1 
   82    85    87     1 
   86    85    87     1 
   80    88    89     1 
   80    88    90     1 
   89    88    90     1 
   88    90    91     1 
   88    90    92     1 
   91    90    92     1 
   90    92    93     1 
   90    92    94     1 
   90    92   112     1 
   93    92    94     1 
   93    92   112     1 
   94    92   112     1 
   92    94    95     1 
   92    94    96     1 
   92    94    97     1 
   95    94    96     1 
   95    94    97     1 
   96    94    97     1 
   94    97    98     1 
   94    97   111     1 
   98    97   111     1 
   97    98    99     1 
   97    98   100     1 
   99    98   100     1 
   98   100   101     1 
   98   100   102     1 
  101   100   102     1 
  100   102   103     1 
  100   102   111     1 
  103   102   111     1 
  102   103   104     1 
  102   103   105     1 
  104   103   105     1 
  103   105   106     1 
  103   105   107     1 
  106   105   107     1 
  105   107   108     1 
  105   107   109     1 
  108   107   109     1 
  107   109   110     1 
  107   109   111     1 
  110   109   111     1 
   97   111   102     1 
   97   111   109     1 
  102   111   109     1 
   92   112   113     1 
   92   112   114     1 
  113   112   114     1 
  112   114   115     1 
  112   114   116     1 
  115   114   116     1 
  114   116   117     1 
  114   116   118     1 
  114   116   136     1 
  117   116   118     1 
  117   116   136     1 
  118   116   136     1 
  116   118   119     1 
  116   118   120     1 
  116   118   121     1 
  119   118   120     1 
  119   118   121     1 
  120   118   121     1 
  118   121   122     1 
  118   121   123     1 
  118   121   124     1 
  122   121   123     1 
  122   121   124     1 
  123   121   124     1 
  121   124   125     1 
  121   124   126     1 
  121   124   127     1 
  125   124   126     1 
  125   124   127     1 
  126   124   127     1 
  124   127   128     1 
  124   127   129     1 
  128   127   129     1 
  127   129   130     1 
  127   129   133     1 
  130   129   133     1 
  129   130   131     1 
  129   130   132     1 
  131   130   132     1 
  129   133   134     1 
  129   133   135     1 
  134   133   135     1 
  116   136   137     1 
  116   136   138     1 
  137   136   138     1 
  136   138   139     1 
  136   138   140     1 
  139   138   140     1 
  138   140   141     1 
  138   140   142     1 
  138   140   151     1 
  141   140   142     1 
  141   140   151     1 
  142   140   151     1 
  140   142   143     1 
  140   142   144     1 
  140   142   145     1 
  143   142   144     1 
  143   142   145     1 
  144   142   145     1 
  142   145   146     1 
  142   145   147     1 
  142   145   148     1 
  146   145   147     1 
  146   145   148     1 
  147   145   148     1 
  145   148   149     1 
  145   148   150     1 
  149   148   150     1 
  140   151   152     1 
  140   151   153     1 
  152   151   153     1 
  151   153   154     1 
  151   153   155     1 
  154   153   155     1 
  153   155   156     1 
  153   155   157     1 
  153   155   173     1 
  156   155   157     1 
  156   155   173     1 
  157   155   173     1 
  155   157   158     1 
  155   157   159     1 
  155   157   160     1 
  158   157   159     1 
  158   157   160     1 
  159   157   160     1 
  157   160   161     1 
  157   160   162     1 
  157   160   163     1 
  161   160   162     1 
  161   160   163     1 
  162   160   163     1 
  160   163   164     1 
  160   163   165     1 
  160   163   166     1 
  164   163   165     1 
  164   163   166     1 
  165   163   166     1 
  163   166   167     1 
  163   166   168     1 
  163   166   169     1 
  167   166   168     1 
  167   166   169     1 
  168   166   169     1 
  166   169   170     1 
  166   169   171     1 
  166   169   172     1 
  170   169   171     1 
  170   169   172     1 
  171   169   172     1 
  155   173   174     1 
  155   173   175     1 
  174   173   175     1 
  173   175   176     1 
  173   175   177     1 
  176   175   177     1 
  175   177   178     1 
  175   177   179     1 
  175   177   180     1 
  178   177   179     1 
  178   177   180     1 
  179   177   180     1 
  177   180   181     1 
  177   180   182     1 
  181   180   182     1 
  180   182   183     1 
  180   182   184     1 
  183   182   184     1 
  182   184   185     1 
  182   184   186     1 
  182   184   201     1 
  185   184   186     1 
  185   184   201     1 
  186   184   201     1 
  184   186   187     1 
  184   186   188     1 
  184   186   189     1 
  187   186   188     1 
  187   186   189     1 
  188   186   189     1 
  186   189   190     1 
  186   189   199     1 
  190   189   199     1 
  189   190   191     1 
  189   190   192     1 
  191   190   192     1 
  190   192   193     1 
  190   192   194     1 
  193   192   194     1 
  192   194   195     1 
  192   194   197     1 
  195   194   197     1 
  194   195   196     1 
  194   197   198     1 
  194   197   199     1 
  198   197   199     1 
  189   199   197     1 
  189   199   200     1 
  197   199   200     1 
  184   201   202     1 
  184   201   203     1 
  202   201   203     1 
  201   203   204     1 
  201   203   205     1 
  204   203   205     1 
  203   205   206     1 
  203   205   207     1 
  203   205   217     1 
  206   205   207     1 
  206   205   217     1 
  207   205   217     1 
  205   207   208     1 
  205   207   209     1 
  205   207   213     1 
  208   207   209     1 
  208   207   213     1 
  209   207   213     1 
  207   209   210     1 
  207   209   211     1 
  207   209   212     1 
  210   209   211     1 
  210   209   212     1 
  211   209   212     1 
  207   213   214     1 
  207   213   215     1 
  207   213   216     1 
  214   213   215     1 
  214   213   216     1 
  215   213   216     1 
  205   217   218     1 
  205   217   219     1 
  218   217   219     1 
  217   219   220     1 
  217   219   221     1 
  220   219   221     1 
  219   221   222     1 
  219   221   223     1 
  219   221   231     1 
  222   221   223     1 
  222   221   231     1 
  223   221   231     1 
  221   223   224     1 
  221   223   225     1 
  221   223   229     1 
  224   223   225     1 
  224   223   229     1 
  225   223   229     1 
  223   225   226     1 
  223   225   227     1 
  223   225   228     1 
  226   225   227     1 
  226   225   228     1 
  227   225   228     1 
  223   229   230     1 
  221   231   232     1 
  221   231   233     1 
  232   231   233     1 
  231   233   234     1 
  231   233   243     1 
  234   233   243     1 
  233   234   235     1 
  233   234   236     1 
  233   234   237     1 
  235   234   236     1 
  235   234   237     1 
  236   234   237     1 
  234   237   238     1 
  234   237   239     1 
  234   237   240     1 
  238   237   239     1 
  238   237   240     1 
  239   237   240     1 
  237   240   241     1 
  237   240   242     1 
  237   240   243     1 
  241   240   242     1 
  241   240   243     1 
  242   240   243     1 
  233   243   240     1 
  233   243   244     1 
  233   243   245     1 
  240   243   244     1 
  240   243   245     1 
  244   243   245     1 
  243   245   246     1 
  243   245   247     1 
  246   245   247     1 
  245   247   248     1 
  245   247   249     1 
  248   247   249     1 
  247   249   250     1 
  247   249   251     1 
  247   249   261     1 
  250   249   251     1 
  250   249   261     1 
  251   249   261     1 
  249   251   252     1 
  249   251   253     1 
  249   251   257     1 
  252   251   253     1 
  252   251   257     1 
  253   251   257     1 
  251   253   254     1 
  251   253   255     1 
  251   253   256     1 
  254   253   255     1 
  254   253   256     1 
  255   253   256     1 
  251   257   258     1 
  251   257   259     1 
  251   257   260     1 
  258   257   259     1 
  258   257   260     1 
  259   257   260     1 
  249   261   262     1 
  249   261   263     1 
  262   261   263     1 
  261   263   264     1 
  261   263   265     1 
  264   263   265     1 
  263   265   266     1 
  263   265   267     1 
  263   265   283     1 
  266   265   267     1 
  266   265   283     1 
  267   265   283     1 
  265   267   268     1 
  265   267   269     1 
  265   267   270     1 
  268   267   269     1 
  268   267   270     1 
  269   267   270     1 
  267   270   271     1 
  267   270   272     1 
  267   270   273     1 
  271   270   272     1 
  271   270   273     1 
  272   270   273     1 
  270   273   274     1 
  270   273   275     1 
  270   273   276     1 
  274   273   275     1 
  274   273   276     1 
  275   273   276     1 
  273   276   277     1 
  273   276   278     1 
  273   276   279     1 
  277   276   278     1 
  277   276   279     1 
  278   276   279     1 
  276   279   280     1 
  276   279   281     1 
  276   279   282     1 
  280   279   281     1 
  280   279   282     1 
  281   279   282     1 
  265   283   284     1 
  265   283   285     1 
  284   283   285     1 
  283   285   286     1 
  283   285   287     1 
  286   285   287     1 
  285   287   288     1 
  285   287   289     1 
  285   287   297     1 
  288   287   289     1 
  288   287   297     1 
  289   287   297     1 
  287   289   290     1 
  287   289   291     1 
  287   289   292     1 
  290   289   291     1 
  290   289   292     1 
  291   289   292     1 
  289   292   293     1 
  289   292   294     1 
  293   292   294     1 
  292   294   295     1 
  292   294   296     1 
  295   294   296     1 
  287   297   298     1 
  287   297   299     1 
  298   297   299     1 
  297   299   300     1 
  297   299   301     1 
  300   299   301     1 
  299   301   302     1 
  299   301   303     1 
  299   301   314     1 
  302   301   303     1 
  302   301   314     1 
  303   301   314     1 
  301   303   304     1 
  301   303   305     1 
  301   303   306     1 
  304   303   305     1 
  304   303   306     1 
  305   303   306     1 
  303   306   307     1 
  303   306   308     1 
  303   306   309     1 
  307   306   308     1 
  307   306   309     1 
  308   306   309     1 
  306   309   310     1 
  306   309   311     1 
  310   309   311     1 
  309   311   312     1 
  309   311   313     1 
  312   311   313     1 
  301   314   315     1 
  301   314   316     1 
  315   314   316     1 
  314   316   317     1 
  314   316   318     1 
  317   316   318     1 
  316   318   319     1 
  316   318   320     1 
  316   318   321     1 
  319   318   320     1 
  319   318   321     1 
  320   318   321     1 
  318   321   322     1 
  318   321   323     1 
  322   321   323     1 
  321   323   324     1 
  321   323   325     1 
  324   323   325     1 
  323   325   326     1 
  323   325   327     1 
  323   325   338     1 
  326   325   327     1 
  326   325   338     1 
  327   325   338     1 
  325   327   328     1 
  325   327   329     1 
  325   327   330     1 
  328   327   329     1 
  328   327   330     1 
  329   327   330     1 
  327   330   331     1 
  327   330   332     1 
  327   330   333     1 
  331   330   332     1 
  331   330   333     1 
  332   330   333     1 
  330   333   334     1 
  330   333   335     1 
  334   333   335     1 
  333   335   336     1 
  333   335   337     1 
  336   335   337     1 
  325   338   339     1 
  325   338   340     1 
  339   338   340     1 
  338   340   341     1 
  338   340   342     1 
  341   340   342     1 
  340   342   343     1 
  340   342   344     1 
  340   342   349     1 
  343   342   344     1 
  343   342   349     1 
  344   342   349     1 
  342   344   345     1 
  342   344   346     1 
  342   344   347     1 
  345   344   346     1 
  345   344   347     1 
  346   344   347     1 
  344   347   348     1 
  342   349   350     1 
  342   349   351     1 
  350   349   351     1 
  349   351   352     1 
  349   351   353     1 
  352   351   353     1 
  351   353   354     1 
  351   353   355     1 
  351   353   356     1 
  354   353   355     1 
  354   353   356     1 
  355   353   356     1 
  353   356   357     1 
  353   356   358     1 
  357   356   358     1 
  356   358   359     1 
  356   358   360     1 
  359   358   360     1 
  358   360   361     1 
  358   360   362     1 
  358   360   367     1 
  361   360   362     1 
  361   360   367     1 
  362   360   367     1 
  360   362   363     1 
  360   362   364     1 
  360   362   365     1 
  363   362   364     1 
  363   362   365     1 
  364   362   365     1 
  362   365   366     1 
  360   367   368     1 
  360   367   369     1 
  368   367   369     1 

[ dihedrals ]
;  ai    aj    ak    al funct            c0            c1            c2            c3            c4            c5
    2     1     5     6     9 
    2     1     5     7     9 
    2     1     5    11     9 
    3     1     5     6     9 
    3     1     5     7     9 
    3     1     5    11     9 
    4     1     5     6     9 
    4     1     5     7     9 
    4     1     5    11     9 
    1     5     7     8     9 
    1     5     7     9     9 
    1     5     7    10     9 
    6     5     7     8     9 
    6     5     7     9     9 
    6     5     7    10     9 
   11     5     7     8     9 
   11     5     7     9     9 
   11     5     7    10     9 
    1     5    11    12     9 
    1     5    11    13     9 
    6     5    11    12     9 
    6     5    11    13     9 
    7     5    11    12     9 
    7     5    11    13     9 
    5    11    13    14     9 
    5    11    13    23     9 
   12    11    13    14     9 
   12    11    13    23     9 
   11    13    14    15     9 
   11    13    14    16     9 
   11    13    14    17     9 
   23    13    14    15     9 
   23    13    14    16     9 
   23    13    14    17     9 
   11    13    23    20     9 
   11    13    23    24     9 
   11    13    23    25     9 
   14    13    23    20     9 
   14    13    23    24     9 
   14    13    23    25     9 
   13    14    17    18     9 
   13    14    17    19     9 
   13    14    17    20     9 
   15    14    17    18     9 
   15    14    17    19     9 
   15    14    17    20     9 
   16    14    17    18     9 
   16    14    17    19     9 
   16    14    17    20     9 
   14    17    20    21     9 
   14    17    20    22     9 
   14    17    20    23     9 
   18    17    20    21     9 
   18    17    20    22     9 
   18    17    20    23     9 
   19    17    20    21     9 
   19    17    20    22     9 
   19    17    20    23     9 
   17    20    23    13     9 
   17    20    23    24     9 
   17    20    23    25     9 
   21    20    23    13     9 
   21    20    23    24     9 
   21    20    23    25     9 
   22    20    23    13     9 
   22    20    23    24     9 
   22    20    23    25     9 
   13    23    25    26     9 
   13    23    25    27     9 
   20    23    25    26     9 
   20    23    25    27     9 
   24    23    25    26     9 
   24    23    25    27     9 
   23    25    27    28     9 
   23    25    27    29     9 
   26    25    27    28     9 
   26    25    27    29     9 
   25    27    29    30     9 
   25    27    29    31     9 
   25    27    29    49     9 
   28    27    29    30     9 
   28    27    29    31     9 
   28    27    29    49     9 
   27    29    31    32     9 
   27    29    31    33     9 
   27    29    31    34     9 
   30    29    31    32     9 
   30    29    31    33     9 
   30    29    31    34     9 
   49    29    31    32     9 
   49    29    31    33     9 
   49    29    31    34     9 
   27    29    49    50     9 
   27    29    49    51     9 
   30    29    49    50     9 
   30    29    49    51     9 
   31    29    49    50     9 
   31    29    49    51     9 
   29    31    34    35     9 
   29    31    34    36     9 
   29    31    34    37     9 
   32    31    34    35     9 
   32    31    34    36     9 
   32    31    34    37     9 
   33    31    34    35     9 
   33    31    34    36     9 
   33    31    34    37     9 
   31    34    37    38     9 
   31    34    37    39     9 
   31    34    37    40     9 
   35    34    37    38     9 
   35    34    37    39     9 
   35    34    37    40     9 
   36    34    37    38     9 
   36    34    37    39     9 
   36    34    37    40     9 
   34    37    40    41     9 
   34    37    40    42     9 
   38    37    40    41     9 
   38    37    40    42     9 
   39    37    40    41     9 
   39    37    40    42     9 
   37    40    42    43     9 
   37    40    42    46     9 
   41    40    42    43     9 
   41    40    42    46     9 
   40    42    43    44     9 
   40    42    43    45     9 
   46    42    43    44     9 
   46    42    43    45     9 
   40    42    46    47     9 
   40    42    46    48     9 
   43    42    46    47     9 
   43    42    46    48     9 
   29    49    51    52     9 
   29    49    51    53     9 
   50    49    51    52     9 
   50    49    51    53     9 
   49    51    53    54     9 
   49    51    53    55     9 
   49    51    53    60     9 
   52    51    53    54     9 
   52    51    53    55     9 
   52    51    53    60     9 
   51    53    55    56     9 
   51    53    55    57     9 
   51    53    55    58     9 
   54    53    55    56     9 
   54    53    55    57     9 
   54    53    55    58     9 
   60    53    55    56     9 
   60    53    55    57     9 
   60    53    55    58     9 
   51    53    60    61     9 
   51    53    60    62     9 
   54    53    60    61     9 
   54    53    60    62     9 
   55    53    60    61     9 
   55    53    60    62     9 
   53    55    58    59     9 
   56    55    58    59     9 
   57    55    58    59     9 
   53    60    62    63     9 
   53    60    62    64     9 
   61    60    62    63     9 
   61    60    62    64     9 
   60    62    64    65     9 
   60    62    64    66     9 
   60    62    64    76     9 
   63    62    64    65     9 
   63    62    64    66     9 
   63    62    64    76     9 
   62    64    66    67     9 
   62    64    66    68     9 
   62    64    66    72     9 
   65    64    66    67     9 
   65    64    66    68     9 
   65    64    66    72     9 
   76    64    66    67     9 
   76    64    66    68     9 
   76    64    66    72     9 
   62    64    76    77     9 
   62    64    76    78     9 
   65    64    76    77     9 
   65    64    76    78     9 
   66    64    76    77     9 
   66    64    76    78     9 
   64    66    68    69     9 
   64    66    68    70     9 
   64    66    68    71     9 
   67    66    68    69     9 
   67    66    68    70     9 
   67    66    68    71     9 
   72    66    68    69     9 
   72    66    68    70     9 
   72    66    68    71     9 
   64    66    72    73     9 
   64    66    72    74     9 
   64    66    72    75     9 
   67    66    72    73     9 
   67    66    72    74     9 
   67    66    72    75     9 
   68    66    72    73     9 
   68    66    72    74     9 
   68    66    72    75     9 
   64    76    78    79     9 
   64    76    78    80     9 
   77    76    78    79     9 
   77    76    78    80     9 
   76    78    80    81     9 
   76    78    80    82     9 
   76    78    80    88     9 
   79    78    80    81     9 
   79    78    80    82     9 
   79    78    80    88     9 
   78    80    82    85     9    torsion_ASP_N_CA_CB_CG_mult1
   78    80    82    85     9    torsion_ASP_N_CA_CB_CG_mult2
   78    80    82    85     9    torsion_ASP_N_CA_CB_CG_mult3
   78    80    82    85     9    torsion_ASP_N_CA_CB_CG_mult4
   78    80    82    85     9    torsion_ASP_N_CA_CB_CG_mult5
   78    80    82    85     9    torsion_ASP_N_CA_CB_CG_mult6
   78    80    82    83     9 
   78    80    82    84     9 
   81    80    82    83     9 
   81    80    82    84     9 
   81    80    82    85     9 
   88    80    82    83     9 
   88    80    82    84     9 
   88    80    82    85     9 
   78    80    88    89     9 
   78    80    88    90     9 
   81    80    88    89     9 
   81    80    88    90     9 
   82    80    88    89     9 
   82    80    88    90     9 
   80    82    85    86     9    torsion_ASP_CA_CB_CG_OD_mult1
   80    82    85    86     9    torsion_ASP_CA_CB_CG_OD_mult2
   80    82    85    86     9    torsion_ASP_CA_CB_CG_OD_mult3
   80    82    85    86     9    torsion_ASP_CA_CB_CG_OD_mult4
   80    82    85    86     9    torsion_ASP_CA_CB_CG_OD_mult5
   80    82    85    86     9    torsion_ASP_CA_CB_CG_OD_mult6
   80    82    85    87     9    torsion_ASP_CA_CB_CG_OD_mult1
   80    82    85    87     9    torsion_ASP_CA_CB_CG_OD_mult2
   80    82    85    87     9    torsion_ASP_CA_CB_CG_OD_mult3
   80    82    85    87     9    torsion_ASP_CA_CB_CG_OD_mult4
   80    82    85    87     9    torsion_ASP_CA_CB_CG_OD_mult5
   80    82    85    87     9    torsion_ASP_CA_CB_CG_OD_mult6
   83    82    85    86     9 
   83    82    85    87     9 
   84    82    85    86     9 
   84    82    85    87     9 
   80    88    90    91     9 
   80    88    90    92     9 
   89    88    90    91     9 
   89    88    90    92     9 
   88    90    92    93     9 
   88    90    92    94     9 
   88    90    92   112     9 
   91    90    92    93     9 
   91    90    92    94     9 
   91    90    92   112     9 
   90    92    94    95     9 
   90    92    94    96     9 
   90    92    94    97     9 
   93    92    94    95     9 
   93    92    94    96     9 
   93    92    94    97     9 
  112    92    94    95     9 
  112    92    94    96     9 
  112    92    94    97     9 
   90    92   112   113     9 
   90    92   112   114     9 
   93    92   112   113     9 
   93    92   112   114     9 
   94    92   112   113     9 
   94    92   112   114     9 
   92    94    97    98     9 
   92    94    97   111     9 
   95    94    97    98     9 
   95    94    97   111     9 
   96    94    97    98     9 
   96    94    97   111     9 
   94    97    98    99     9 
   94    97    98   100     9 
  111    97    98    99     9 
  111    97    98   100     9 
   94    97   111   102     9 
   94    97   111   109     9 
   98    97   111   102     9 
   98    97   111   109     9 
   97    98   100   101     9 
   97    98   100   102     9 
   99    98   100   101     9 
   99    98   100   102     9 
   98   100   102   103     9 
   98   100   102   111     9 
  101   100   102   103     9 
  101   100   102   111     9 
  100   102   103   104     9 
  100   102   103   105     9 
  111   102   103   104     9 
  111   102   103   105     9 
  100   102   111    97     9 
  100   102   111   109     9 
  103   102   111    97     9 
  103   102   111   109     9 
  102   103   105   106     9 
  102   103   105   107     9 
  104   103   105   106     9 
  104   103   105   107     9 
  103   105   107   108     9 
  103   105   107   109     9 
  106   105   107   108     9 
  106   105   107   109     9 
  105   107   109   110     9 
  105   107   109   111     9 
  108   107   109   110     9 
  108   107   109   111     9 
  107   109   111    97     9 
  107   109   111   102     9 
  110   109   111    97     9 
  110   109   111   102     9 
   92   112   114   115     9 
   92   112   114   116     9 
  113   112   114   115     9 
  113   112   114   116     9 
  112   114   116   117     9 
  112   114   116   118     9 
  112   114   116   136     9 
  115   114   116   117     9 
  115   114   116   118     9 
  115   114   116   136     9 
  114   116   118   119     9 
  114   116   118   120     9 
  114   116   118   121     9 
  117   116   118   119     9 
  117   116   118   120     9 
  117   116   118   121     9 
  136   116   118   119     9 
  136   116   118   120     9 
  136   116   118   121     9 
  114   116   136   137     9 
  114   116   136   138     9 
  117   116   136   137     9 
  117   116   136   138     9 
  118   116   136   137     9 
  118   116   136   138     9 
  116   118   121   122     9 
  116   118   121   123     9 
  116   118   121   124     9 
  119   118   121   122     9 
  119   118   121   123     9 
  119   118   121   124     9 
  120   118   121   122     9 
  120   118   121   123     9 
  120   118   121   124     9 
  118   121   124   125     9 
  118   121   124   126     9 
  118   121   124   127     9 
  122   121   124   125     9 
  122   121   124   126     9 
  122   121   124   127     9 
  123   121   124   125     9 
  123   121   124   126     9 
  123   121   124   127     9 
  121   124   127   128     9 
  121   124   127   129     9 
  125   124   127   128     9 
  125   124   127   129     9 
  126   124   127   128     9 
  126   124   127   129     9 
  124   127   129   130     9 
  124   127   129   133     9 
  128   127   129   130     9 
  128   127   129   133     9 
  127   129   130   131     9 
  127   129   130   132     9 
  133   129   130   131     9 
  133   129   130   132     9 
  127   129   133   134     9 
  127   129   133   135     9 
  130   129   133   134     9 
  130   129   133   135     9 
  116   136   138   139     9 
  116   136   138   140     9 
  137   136   138   139     9 
  137   136   138   140     9 
  136   138   140   141     9 
  136   138   140   142     9 
  136   138   140   151     9 
  139   138   140   141     9 
  139   138   140   142     9 
  139   138   140   151     9 
  138   140   142   143     9 
  138   140   142   144     9 
  138   140   142   145     9 
  141   140   142   143     9 
  141   140   142   144     9 
  141   140   142   145     9 
  151   140   142   143     9 
  151   140   142   144     9 
  151   140   142   145     9 
  138   140   151   152     9 
  138   140   151   153     9 
  141   140   151   152     9 
  141   140   151   153     9 
  142   140   151   152     9 
  142   140   151   153     9 
  140   142   145   146     9 
  140   142   145   147     9 
  140   142   145   148     9 
  143   142   145   146     9 
  143   142   145   147     9 
  143   142   145   148     9 
  144   142   145   146     9 
  144   142   145   147     9 
  144   142   145   148     9 
  142   145   148   149     9 
  142   145   148   150     9 
  146   145   148   149     9 
  146   145   148   150     9 
  147   145   148   149     9 
  147   145   148   150     9 
  140   151   153   154     9 
  140   151   153   155     9 
  152   151   153   154     9 
  152   151   153   155     9 
  151   153   155   156     9 
  151   153   155   157     9 
  151   153   155   173     9 
  154   153   155   156     9 
  154   153   155   157     9 
  154   153   155   173     9 
  153   155   157   158     9 
  153   155   157   159     9 
  153   155   157   160     9 
  156   155   157   158     9 
  156   155   157   159     9 
  156   155   157   160     9 
  173   155   157   158     9 
  173   155   157   159     9 
  173   155   157   160     9 
  153   155   173   174     9 
  153   155   173   175     9 
  156   155   173   174     9 
  156   155   173   175     9 
  157   155   173   174     9 
  157   155   173   175     9 
  155   157   160   161     9 
  155   157   160   162     9 
  155   157   160   163     9 
  158   157   160   161     9 
  158   157   160   162     9 
  158   157   160   163     9 
  159   157   160   161     9 
  159   157   160   162     9 
  159   157   160   163     9 
  157   160   163   164     9 
  157   160   163   165     9 
  157   160   163   166     9 
  161   160   163   164     9 
  161   160   163   165     9 
  161   160   163   166     9 
  162   160   163   164     9 
  162   160   163   165     9 
  162   160   163   166     9 
  160   163   166   167     9 
  160   163   166   168     9 
  160   163   166   169     9 
  164   163   166   167     9 
  164   163   166   168     9 
  164   163   166   169     9 
  165   163   166   167     9 
  165   163   166   168     9 
  165   163   166   169     9 
  163   166   169   170     9 
  163   166   169   171     9 
  163   166   169   172     9 
  167   166   169   170     9 
  167   166   169   171     9 
  167   166   169   172     9 
  168   166   169   170     9 
  168   166   169   171     9 
  168   166   169   172     9 
  155   173   175   176     9 
  155   173   175   177     9 
  174   173   175   176     9 
  174   173   175   177     9 
  173   175   177   178     9 
  173   175   177   179     9 
  173   175   177   180     9 
  176   175   177   178     9 
  176   175   177   179     9 
  176   175   177   180     9 
  175   177   180   181     9 
  175   177   180   182     9 
  178   177   180   181     9 
  178   177   180   182     9 
  179   177   180   181     9 
  179   177   180   182     9 
  177   180   182   183     9 
  177   180   182   184     9 
  181   180   182   183     9 
  181   180   182   184     9 
  180   182   184   185     9 
  180   182   184   186     9 
  180   182   184   201     9 
  183   182   184   185     9 
  183   182   184   186     9 
  183   182   184   201     9 
  182   184   186   187     9 
  182   184   186   188     9 
  182   184   186   189     9 
  185   184   186   187     9 
  185   184   186   188     9 
  185   184   186   189     9 
  201   184   186   187     9 
  201   184   186   188     9 
  201   184   186   189     9 
  182   184   201   202     9 
  182   184   201   203     9 
  185   184   201   202     9 
  185   184   201   203     9 
  186   184   201   202     9 
  186   184   201   203     9 
  184   186   189   190     9 
  184   186   189   199     9 
  187   186   189   190     9 
  187   186   189   199     9 
  188   186   189   190     9 
  188   186   189   199     9 
  186   189   190   191     9 
  186   189   190   192     9 
  199   189   190   191     9 
  199   189   190   192     9 
  186   189   199   197     9 
  186   189   199   200     9 
  190   189   199   197     9 
  190   189   199   200     9 
  189   190   192   193     9 
  189   190   192   194     9 
  191   190   192   193     9 
  191   190   192   194     9 
  190   192   194   195     9 
  190   192   194   197     9 
  193   192   194   195     9 
  193   192   194   197     9 
  192   194   195   196     9 
  197   194   195   196     9 
  192   194   197   198     9 
  192   194   197   199     9 
  195   194   197   198     9 
  195   194   197   199     9 
  194   197   199   189     9 
  194   197   199   200     9 
  198   197   199   189     9 
  198   197   199   200     9 
  184   201   203   204     9 
  184   201   203   205     9 
  202   201   203   204     9 
  202   201   203   205     9 
  201   203   205   206     9 
  201   203   205   207     9 
  201   203   205   217     9 
  204   203   205   206     9 
  204   203   205   207     9 
  204   203   205   217     9 
  203   205   207   208     9 
  203   205   207   209     9 
  203   205   207   213     9 
  206   205   207   208     9 
  206   205   207   209     9 
  206   205   207   213     9 
  217   205   207   208     9 
  217   205   207   209     9 
  217   205   207   213     9 
  203   205   217   218     9 
  203   205   217   219     9 
  206   205   217   218     9 
  206   205   217   219     9 
  207   205   217   218     9 
  207   205   217   219     9 
  205   207   209   210     9 
  205   207   209   211     9 
  205   207   209   212     9 
  208   207   209   210     9 
  208   207   209   211     9 
  208   207   209   212     9 
  213   207   209   210     9 
  213   207   209   211     9 
  213   207   209   212     9 
  205   207   213   214     9 
  205   207   213   215     9 
  205   207   213   216     9 
  208   207   213   214     9 
  208   207   213   215     9 
  208   207   213   216     9 
  209   207   213   214     9 
  209   207   213   215     9 
  209   207   213   216     9 
  205   217   219   220     9 
  205   217   219   221     9 
  218   217   219   220     9 
  218   217   219   221     9 
  217   219   221   222     9 
  217   219   221   223     9 
  217   219   221   231     9 
  220   219   221   222     9 
  220   219   221   223     9 
  220   219   221   231     9 
  219   221   223   224     9 
  219   221   223   225     9 
  219   221   223   229     9 
  222   221   223   224     9 
  222   221   223   225     9 
  222   221   223   229     9 
  231   221   223   224     9 
  231   221   223   225     9 
  231   221   223   229     9 
  219   221   231   232     9 
  219   221   231   233     9 
  222   221   231   232     9 
  222   221   231   233     9 
  223   221   231   232     9 
  223   221   231   233     9 
  221   223   225   226     9 
  221   223   225   227     9 
  221   223   225   228     9 
  224   223   225   226     9 
  224   223   225   227     9 
  224   223   225   228     9 
  229   223   225   226     9 
  229   223   225   227     9 
  229   223   225   228     9 
  221   223   229   230     9 
  224   223   229   230     9 
  225   223   229   230     9 
  221   231   233   234     9 
  221   231   233   243     9 
  232   231   233   234     9 
  232   231   233   243     9 
  231   233   234   235     9 
  231   233   234   236     9 
  231   233   234   237     9 
  243   233   234   235     9 
  243   233   234   236     9 
  243   233   234   237     9 
  231   233   243   240     9 
  231   233   243   244     9 
  231   233   243   245     9 
  234   233   243   240     9 
  234   233   243   244     9 
  234   233   243   245     9 
  233   234   237   238     9 
  233   234   237   239     9 
  233   234   237   240     9 
  235   234   237   238     9 
  235   234   237   239     9 
  235   234   237   240     9 
  236   234   237   238     9 
  236   234   237   239     9 
  236   234   237   240     9 
  234   237   240   241     9 
  234   237   240   242     9 
  234   237   240   243     9 
  238   237   240   241     9 
  238   237   240   242     9 
  238   237   240   243     9 
  239   237   240   241     9 
  239   237   240   242     9 
  239   237   240   243     9 
  237   240   243   233     9 
  237   240   243   244     9 
  237   240   243   245     9 
  241   240   243   233     9 
  241   240   243   244     9 
  241   240   243   245     9 
  242   240   243   233     9 
  242   240   243   244     9 
  242   240   243   245     9 
  233   243   245   246     9 
  233   243   245   247     9 
  240   243   245   246     9 
  240   243   245   247     9 
  244   243   245   246     9 
  244   243   245   247     9 
  243   245   247   248     9 
  243   245   247   249     9 
  246   245   247   248     9 
  246   245   247   249     9 
  245   247   249   250     9 
  245   247   249   251     9 
  245   247   249   261     9 
  248   247   249   250     9 
  248   247   249   251     9 
  248   247   249   261     9 
  247   249   251   252     9 
  247   249   251   253     9 
  247   249   251   257     9 
  250   249   251   252     9 
  250   249   251   253     9 
  250   249   251   257     9 
  261   249   251   252     9 
  261   249   251   253     9 
  261   249   251   257     9 
  247   249   261   262     9 
  247   249   261   263     9 
  250   249   261   262     9 
  250   249   261   263     9 
  251   249   261   262     9 
  251   249   261   263     9 
  249   251   253   254     9 
  249   251   253   255     9 
  249   251   253   256     9 
  252   251   253   254     9 
  252   251   253   255     9 
  252   251   253   256     9 
  257   251   253   254     9 
  257   251   253   255     9 
  257   251   253   256     9 
  249   251   257   258     9 
  249   251   257   259     9 
  249   251   257   260     9 
  252   251   257   258     9 
  252   251   257   259     9 
  252   251   257   260     9 
  253   251   257   258     9 
  253   251   257   259     9 
  253   251   257   260     9 
  249   261   263   264     9 
  249   261   263   265     9 
  262   261   263   264     9 
  262   261   263   265     9 
  261   263   265   266     9 
  261   263   265   267     9 
  261   263   265   283     9 
  264   263   265   266     9 
  264   263   265   267     9 
  264   263   265   283     9 
  263   265   267   268     9 
  263   265   267   269     9 
  263   265   267   270     9 
  266   265   267   268     9 
  266   265   267   269     9 
  266   265   267   270     9 
  283   265   267   268     9 
  283   265   267   269     9 
  283   265   267   270     9 
  263   265   283   284     9 
  263   265   283   285     9 
  266   265   283   284     9 
  266   265   283   285     9 
  267   265   283   284     9 
  267   265   283   285     9 
  265   267   270   271     9 
  265   267   270   272     9 
  265   267   270   273     9 
  268   267   270   271     9 
  268   267   270   272     9 
  268   267   270   273     9 
  269   267   270   271     9 
  269   267   270   272     9 
  269   267   270   273     9 
  267   270   273   274     9 
  267   270   273   275     9 
  267   270   273   276     9 
  271   270   273   274     9 
  271   270   273   275     9 
  271   270   273   276     9 
  272   270   273   274     9 
  272   270   273   275     9 
  272   270   273   276     9 
  270   273   276   277     9 
  270   273   276   278     9 
  270   273   276   279     9 
  274   273   276   277     9 
  274   273   276   278     9 
  274   273   276   279     9 
  275   273   276   277     9 
  275   273   276   278     9 
  275   273   276   279     9 
  273   276   279   280     9 
  273   276   279   281     9 
  273   276   279   282     9 
  277   276   279   280     9 
  277   276   279   281     9 
  277   276   279   282     9 
  278   276   279   280     9 
  278   276   279   281     9 
  278   276   279   282     9 
  265   283   285   286     9 
  265   283   285   287     9 
  284   283   285   286     9 
  284   283   285   287     9 
  283   285   287   288     9 
  283   285   287   289     9 
  283   285   287   297     9 
  286   285   287   288     9 
  286   285   287   289     9 
  286   285   287   297     9 
  297   287   289   292     9    torsion_ASN_C_CA_CB_CG_mult1
  297   287   289   292     9    torsion_ASN_C_CA_CB_CG_mult2
  297   287   289   292     9    torsion_ASN_C_CA_CB_CG_mult3
  297   287   289   292     9    torsion_ASN_C_CA_CB_CG_mult4
  297   287   289   292     9    torsion_ASN_C_CA_CB_CG_mult5
  297   287   289   292     9    torsion_ASN_C_CA_CB_CG_mult6
  285   287   289   290     9 
  285   287   289   291     9 
  285   287   289   292     9 
  288   287   289   290     9 
  288   287   289   291     9 
  288   287   289   292     9 
  297   287   289   290     9 
  297   287   289   291     9 
  285   287   297   298     9 
  285   287   297   299     9 
  288   287   297   298     9 
  288   287   297   299     9 
  289   287   297   298     9 
  289   287   297   299     9 
  287   289   292   294     9    torsion_ASN_CA_CB_CG_ND2_mult1
  287   289   292   294     9    torsion_ASN_CA_CB_CG_ND2_mult2
  287   289   292   294     9    torsion_ASN_CA_CB_CG_ND2_mult3
  287   289   292   294     9    torsion_ASN_CA_CB_CG_ND2_mult4
  287   289   292   294     9    torsion_ASN_CA_CB_CG_ND2_mult5
  287   289   292   294     9    torsion_ASN_CA_CB_CG_ND2_mult6
  287   289   292   293     9 
  290   289   292   293     9 
  290   289   292   294     9 
  291   289   292   293     9 
  291   289   292   294     9 
  289   292   294   295     9 
  289   292   294   296     9 
  293   292   294   295     9 
  293   292   294   296     9 
  287   297   299   300     9 
  287   297   299   301     9 
  298   297   299   300     9 
  298   297   299   301     9 
  297   299   301   302     9 
  297   299   301   303     9 
  297   299   301   314     9 
  300   299   301   302     9 
  300   299   301   303     9 
  300   299   301   314     9 
  299   301   303   304     9 
  299   301   303   305     9 
  299   301   303   306     9 
  302   301   303   304     9 
  302   301   303   305     9 
  302   301   303   306     9 
  314   301   303   304     9 
  314   301   303   305     9 
  314   301   303   306     9 
  299   301   314   315     9 
  299   301   314   316     9 
  302   301   314   315     9 
  302   301   314   316     9 
  303   301   314   315     9 
  303   301   314   316     9 
  301   303   306   307     9 
  301   303   306   308     9 
  301   303   306   309     9 
  304   303   306   307     9 
  304   303   306   308     9 
  304   303   306   309     9 
  305   303   306   307     9 
  305   303   306   308     9 
  305   303   306   309     9 
  303   306   309   310     9 
  303   306   309   311     9 
  307   306   309   310     9 
  307   306   309   311     9 
  308   306   309   310     9 
  308   306   309   311     9 
  306   309   311   312     9 
  306   309   311   313     9 
  310   309   311   312     9 
  310   309   311   313     9 
  301   314   316   317     9 
  301   314   316   318     9 
  315   314   316   317     9 
  315   314   316   318     9 
  314   316   318   319     9 
  314   316   318   320     9 
  314   316   318   321     9 
  317   316   318   319     9 
  317   316   318   320     9 
  317   316   318   321     9 
  316   318   321   322     9 
  316   318   321   323     9 
  319   318   321   322     9 
  319   318   321   323     9 
  320   318   321   322     9 
  320   318   321   323     9 
  318   321   323   324     9 
  318   321   323   325     9 
  322   321   323   324     9 
  322   321   323   325     9 
  321   323   325   326     9 
  321   323   325   327     9 
  321   323   325   338     9 
  324   323   325   326     9 
  324   323   325   327     9 
  324   323   325   338     9 
  323   325   327   328     9 
  323   325   327   329     9 
  323   325   327   330     9 
  326   325   327   328     9 
  326   325   327   329     9 
  326   325   327   330     9 
  338   325   327   328     9 
  338   325   327   329     9 
  338   325   327   330     9 
  323   325   338   339     9 
  323   325   338   340     9 
  326   325   338   339     9 
  326   325   338   340     9 
  327   325   338   339     9 
  327   325   338   340     9 
  325   327   330   331     9 
  325   327   330   332     9 
  325   327   330   333     9 
  328   327   330   331     9 
  328   327   330   332     9 
  328   327   330   333     9 
  329   327   330   331     9 
  329   327   330   332     9 
  329   327   330   333     9 
  327   330   333   334     9 
  327   330   333   335     9 
  331   330   333   334     9 
  331   330   333   335     9 
  332   330   333   334     9 
  332   330   333   335     9 
  330   333   335   336     9 
  330   333   335   337     9 
  334   333   335   336     9 
  334   333   335   337     9 
  325   338   340   341     9 
  325   338   340   342     9 
  339   338   340   341     9 
  339   338   340   342     9 
  338   340   342   343     9 
  338   340   342   344     9 
  338   340   342   349     9 
  341   340   342   343     9 
  341   340   342   344     9 
  341   340   342   349     9 
  340   342   344   345     9 
  340   342   344   346     9 
  340   342   344   347     9 
  343   342   344   345     9 
  343   342   344   346     9 
  343   342   344   347     9 
  349   342   344   345     9 
  349   342   344   346     9 
  349   342   344   347     9 
  340   342   349   350     9 
  340   342   349   351     9 
  343   342   349   350     9 
  343   342   349   351     9 
  344   342   349   350     9 
  344   342   349   351     9 
  342   344   347   348     9 
  345   344   347   348     9 
  346   344   347   348     9 
  342   349   351   352     9 
  342   349   351   353     9 
  350   349   351   352     9 
  350   349   351   353     9 
  349   351   353   354     9 
  349   351   353   355     9 
  349   351   353   356     9 
  352   351   353   354     9 
  352   351   353   355     9 
  352   351   353   356     9 
  351   353   356   357     9 
  351   353   356   358     9 
  354   353   356   357     9 
  354   353   356   358     9 
  355   353   356   357     9 
  355   353   356   358     9 
  353   356   358   359     9 
  353   356   358   360     9 
  357   356   358   359     9 
  357   356   358   360     9 
  356   358   360   361     9 
  356   358   360   362     9 
  356   358   360   367     9 
  359   358   360   361     9 
  359   358   360   362     9 
  359   358   360   367     9 
  358   360   362   363     9 
  358   360   362   364     9 
  358   360   362   365     9 
  361   360   362   363     9 
  361   360   362   364     9 
  361   360   362   365     9 
  367   360   362   363     9 
  367   360   362   364     9 
  367   360   362   365     9 
  358   360   367   368     9 
  358   360   367   369     9 
  361   360   367   368     9 
  361   360   367   369     9 
  362   360   367   368     9 
  362   360   367   369     9 
  360   362   365   366     9 
  363   362   365   366     9 
  364   362   365   366     9 

[ dihedrals ]
;  ai    aj    ak    al funct            c0            c1            c2            c3
    5    13    11    12     4 
   11    14    13    23     4 
   23    27    25    26     4 
   25    29    27    28     4 
   29    51    49    50     4 
   37    42    40    41     4 
   40    43    42    46     4 
   42    44    43    45     4 
   42    47    46    48     4 
   49    53    51    52     4 
   53    62    60    61     4 
   60    64    62    63     4 
   64    78    76    77     4 
   76    80    78    79     4 
   80    90    88    89     4 
   82    86    85    87     4 
   88    92    90    91     4 
   92   114   112   113     4 
   97   100    98    99     4 
   98   102   100   101     4 
   98    97    94   111     4 
  102   105   103   104     4 
  103   107   105   106     4 
  105   109   107   108     4 
  107   111   109   110     4 
  112   116   114   115     4 
  116   138   136   137     4 
  124   129   127   128     4 
  127   130   129   133     4 
  129   131   130   132     4 
  129   134   133   135     4 
  136   140   138   139     4 
  140   153   151   152     4 
  145   149   148   150     4 
  151   155   153   154     4 
  155   175   173   174     4 
  173   177   175   176     4 
  177   182   180   181     4 
  180   184   182   183     4 
  184   203   201   202     4 
  186   189   199   190     4 
  189   192   190   191     4 
  189   197   199   200     4 
  190   194   192   193     4 
  192   197   194   195     4 
  194   199   197   198     4 
  201   205   203   204     4 
  205   219   217   218     4 
  217   221   219   220     4 
  221   233   231   232     4 
  231   234   233   243     4 
  243   247   245   246     4 
  245   249   247   248     4 
  249   263   261   262     4 
  261   265   263   264     4 
  265   285   283   284     4 
  283   287   285   286     4 
  287   299   297   298     4 
  289   294   292   293     4 
  292   295   294   296     4 
  297   301   299   300     4 
  301   316   314   315     4 
  306   311   309   310     4 
  309   312   311   313     4 
  314   318   316   317     4 
  318   323   321   322     4 
  321   325   323   324     4 
  325   340   338   339     4 
  330   335   333   334     4 
  333   336   335   337     4 
  338   342   340   341     4 
  342   351   349   350     4 
  349   353   351   352     4 
  353   358   356   357     4 
  356   360   358   359     4 
  360   368   367   369     4 

; Include Position restraint file
#ifdef POSRES
#include "3BC3_proteinH_gaps_fragment_01_posre.itp"
#endif

; Include water topology
#include "amber99sb-ildn.ff/tip3p.itp"

#ifdef POSRES_WATER
; Position restraint for each water oxygen
[ position_restraints ]
;  i funct       fcx        fcy        fcz
   1    1       1000       1000       1000
#endif

; Include topology for ions
#include "amber99sb-ildn.ff/ions.itp"

[ system ]
; Name
Protein

[ molecules ]
; Compound        #mols
Protein_chain_A     1
