;
;	File '2P1T_proteinH_gaps_fragment_01.top' was generated
;	By user: grheco (1000)
;	On host: grheco
;	At date: Sun May 17 17:45:24 2026
;
;	This is a standalone topology file
;
;	Created by:
;	              :-) GROMACS - gmx pdb2gmx, 2026.0-conda_forge (-:
;	
;	Executable:   /home/grheco/repositorios/stack_protein_prep/.pixi/envs/default/bin.AVX2_256/gmx
;	Data prefix:  /home/grheco/repositorios/stack_protein_prep/.pixi/envs/default
;	Working dir:  /home/grheco/repositorios/stack_protein_prep/data/proteins/2P1T/components
;	Command line:
;	  gmx pdb2gmx -f /home/grheco/repositorios/stack_protein_prep/data/proteins/2P1T/components/.tmp_sanitized_protonation/2P1T_gaps_fragment_01_sanitized.pdb -o 2P1T_proteinH_gaps_fragment_01.pdb -p 2P1T_proteinH_gaps_fragment_01.top -i 2P1T_proteinH_gaps_fragment_01_posre.itp -ff amber99sb-ildn -water tip3p -chainsep id_or_ter -merge no -ignh
;	Force field was read from the standard GROMACS share directory.
;

; Include forcefield parameters
#include "amber99sb-ildn.ff/forcefield.itp"

[ moleculetype ]
; Name            nrexcl
Protein_chain_A     3

[ atoms ]
;   nr       type  resnr residue  atom   cgnr     charge       mass  typeB    chargeB      massB
; residue 229 ASP rtp NASP q  0.0
     1         N3    229    ASP      N      1     0.0782      14.01
     2          H    229    ASP     H1      2       0.22      1.008
     3          H    229    ASP     H2      3       0.22      1.008
     4          H    229    ASP     H3      4       0.22      1.008
     5         CT    229    ASP     CA      5     0.0292      12.01
     6         HP    229    ASP     HA      6     0.1141      1.008
     7         CT    229    ASP     CB      7    -0.0235      12.01
     8         HC    229    ASP    HB1      8    -0.0169      1.008
     9         HC    229    ASP    HB2      9    -0.0169      1.008
    10          C    229    ASP     CG     10     0.8194      12.01
    11         O2    229    ASP    OD1     11    -0.8084         16
    12         O2    229    ASP    OD2     12    -0.8084         16
    13          C    229    ASP      C     13     0.5621      12.01
    14          O    229    ASP      O     14    -0.5889         16   ; qtot 0
; residue 230 MET rtp MET  q  0.0
    15          N    230    MET      N     15    -0.4157      14.01
    16          H    230    MET      H     16     0.2719      1.008
    17         CT    230    MET     CA     17    -0.0237      12.01
    18         H1    230    MET     HA     18      0.088      1.008
    19         CT    230    MET     CB     19     0.0342      12.01
    20         HC    230    MET    HB1     20     0.0241      1.008
    21         HC    230    MET    HB2     21     0.0241      1.008
    22         CT    230    MET     CG     22     0.0018      12.01
    23         H1    230    MET    HG1     23      0.044      1.008
    24         H1    230    MET    HG2     24      0.044      1.008
    25          S    230    MET     SD     25    -0.2737      32.06
    26         CT    230    MET     CE     26    -0.0536      12.01
    27         H1    230    MET    HE1     27     0.0684      1.008
    28         H1    230    MET    HE2     28     0.0684      1.008
    29         H1    230    MET    HE3     29     0.0684      1.008
    30          C    230    MET      C     30     0.5973      12.01
    31          O    230    MET      O     31    -0.5679         16   ; qtot 0
; residue 231 PRO rtp PRO  q  0.0
    32          N    231    PRO      N     32    -0.2548      14.01
    33         CT    231    PRO     CD     33     0.0192      12.01
    34         H1    231    PRO    HD1     34     0.0391      1.008
    35         H1    231    PRO    HD2     35     0.0391      1.008
    36         CT    231    PRO     CG     36     0.0189      12.01
    37         HC    231    PRO    HG1     37     0.0213      1.008
    38         HC    231    PRO    HG2     38     0.0213      1.008
    39         CT    231    PRO     CB     39     -0.007      12.01
    40         HC    231    PRO    HB1     40     0.0253      1.008
    41         HC    231    PRO    HB2     41     0.0253      1.008
    42         CT    231    PRO     CA     42    -0.0266      12.01
    43         H1    231    PRO     HA     43     0.0641      1.008
    44          C    231    PRO      C     44     0.5896      12.01
    45          O    231    PRO      O     45    -0.5748         16   ; qtot 0
; residue 232 VAL rtp VAL  q  0.0
    46          N    232    VAL      N     46    -0.4157      14.01
    47          H    232    VAL      H     47     0.2719      1.008
    48         CT    232    VAL     CA     48    -0.0875      12.01
    49         H1    232    VAL     HA     49     0.0969      1.008
    50         CT    232    VAL     CB     50     0.2985      12.01
    51         HC    232    VAL     HB     51    -0.0297      1.008
    52         CT    232    VAL    CG1     52    -0.3192      12.01
    53         HC    232    VAL   HG11     53     0.0791      1.008
    54         HC    232    VAL   HG12     54     0.0791      1.008
    55         HC    232    VAL   HG13     55     0.0791      1.008
    56         CT    232    VAL    CG2     56    -0.3192      12.01
    57         HC    232    VAL   HG21     57     0.0791      1.008
    58         HC    232    VAL   HG22     58     0.0791      1.008
    59         HC    232    VAL   HG23     59     0.0791      1.008
    60          C    232    VAL      C     60     0.5973      12.01
    61          O    232    VAL      O     61    -0.5679         16   ; qtot 0
; residue 233 GLU rtp GLU  q -1.0
    62          N    233    GLU      N     62    -0.5163      14.01
    63          H    233    GLU      H     63     0.2936      1.008
    64         CT    233    GLU     CA     64     0.0397      12.01
    65         H1    233    GLU     HA     65     0.1105      1.008
    66         CT    233    GLU     CB     66      0.056      12.01
    67         HC    233    GLU    HB1     67    -0.0173      1.008
    68         HC    233    GLU    HB2     68    -0.0173      1.008
    69         CT    233    GLU     CG     69     0.0136      12.01
    70         HC    233    GLU    HG1     70    -0.0425      1.008
    71         HC    233    GLU    HG2     71    -0.0425      1.008
    72          C    233    GLU     CD     72     0.8054      12.01
    73         O2    233    GLU    OE1     73    -0.8188         16
    74         O2    233    GLU    OE2     74    -0.8188         16
    75          C    233    GLU      C     75     0.5366      12.01
    76          O    233    GLU      O     76    -0.5819         16   ; qtot -1
; residue 234 ARG rtp ARG  q +1.0
    77          N    234    ARG      N     77    -0.3479      14.01
    78          H    234    ARG      H     78     0.2747      1.008
    79         CT    234    ARG     CA     79    -0.2637      12.01
    80         H1    234    ARG     HA     80      0.156      1.008
    81         CT    234    ARG     CB     81    -0.0007      12.01
    82         HC    234    ARG    HB1     82     0.0327      1.008
    83         HC    234    ARG    HB2     83     0.0327      1.008
    84         CT    234    ARG     CG     84      0.039      12.01
    85         HC    234    ARG    HG1     85     0.0285      1.008
    86         HC    234    ARG    HG2     86     0.0285      1.008
    87         CT    234    ARG     CD     87     0.0486      12.01
    88         H1    234    ARG    HD1     88     0.0687      1.008
    89         H1    234    ARG    HD2     89     0.0687      1.008
    90         N2    234    ARG     NE     90    -0.5295      14.01
    91          H    234    ARG     HE     91     0.3456      1.008
    92         CA    234    ARG     CZ     92     0.8076      12.01
    93         N2    234    ARG    NH1     93    -0.8627      14.01
    94          H    234    ARG   HH11     94     0.4478      1.008
    95          H    234    ARG   HH12     95     0.4478      1.008
    96         N2    234    ARG    NH2     96    -0.8627      14.01
    97          H    234    ARG   HH21     97     0.4478      1.008
    98          H    234    ARG   HH22     98     0.4478      1.008
    99          C    234    ARG      C     99     0.7341      12.01
   100          O    234    ARG      O    100    -0.5894         16   ; qtot 0
; residue 235 ILE rtp ILE  q  0.0
   101          N    235    ILE      N    101    -0.4157      14.01
   102          H    235    ILE      H    102     0.2719      1.008
   103         CT    235    ILE     CA    103    -0.0597      12.01
   104         H1    235    ILE     HA    104     0.0869      1.008
   105         CT    235    ILE     CB    105     0.1303      12.01
   106         HC    235    ILE     HB    106     0.0187      1.008
   107         CT    235    ILE    CG2    107    -0.3204      12.01
   108         HC    235    ILE   HG21    108     0.0882      1.008
   109         HC    235    ILE   HG22    109     0.0882      1.008
   110         HC    235    ILE   HG23    110     0.0882      1.008
   111         CT    235    ILE    CG1    111     -0.043      12.01
   112         HC    235    ILE   HG11    112     0.0236      1.008
   113         HC    235    ILE   HG12    113     0.0236      1.008
   114         CT    235    ILE     CD    114     -0.066      12.01
   115         HC    235    ILE    HD1    115     0.0186      1.008
   116         HC    235    ILE    HD2    116     0.0186      1.008
   117         HC    235    ILE    HD3    117     0.0186      1.008
   118          C    235    ILE      C    118     0.5973      12.01
   119          O    235    ILE      O    119    -0.5679         16   ; qtot 0
; residue 236 LEU rtp LEU  q  0.0
   120          N    236    LEU      N    120    -0.4157      14.01
   121          H    236    LEU      H    121     0.2719      1.008
   122         CT    236    LEU     CA    122    -0.0518      12.01
   123         H1    236    LEU     HA    123     0.0922      1.008
   124         CT    236    LEU     CB    124    -0.1102      12.01
   125         HC    236    LEU    HB1    125     0.0457      1.008
   126         HC    236    LEU    HB2    126     0.0457      1.008
   127         CT    236    LEU     CG    127     0.3531      12.01
   128         HC    236    LEU     HG    128    -0.0361      1.008
   129         CT    236    LEU    CD1    129    -0.4121      12.01
   130         HC    236    LEU   HD11    130        0.1      1.008
   131         HC    236    LEU   HD12    131        0.1      1.008
   132         HC    236    LEU   HD13    132        0.1      1.008
   133         CT    236    LEU    CD2    133    -0.4121      12.01
   134         HC    236    LEU   HD21    134        0.1      1.008
   135         HC    236    LEU   HD22    135        0.1      1.008
   136         HC    236    LEU   HD23    136        0.1      1.008
   137          C    236    LEU      C    137     0.5973      12.01
   138          O    236    LEU      O    138    -0.5679         16   ; qtot 0
; residue 237 GLU rtp GLU  q -1.0
   139          N    237    GLU      N    139    -0.5163      14.01
   140          H    237    GLU      H    140     0.2936      1.008
   141         CT    237    GLU     CA    141     0.0397      12.01
   142         H1    237    GLU     HA    142     0.1105      1.008
   143         CT    237    GLU     CB    143      0.056      12.01
   144         HC    237    GLU    HB1    144    -0.0173      1.008
   145         HC    237    GLU    HB2    145    -0.0173      1.008
   146         CT    237    GLU     CG    146     0.0136      12.01
   147         HC    237    GLU    HG1    147    -0.0425      1.008
   148         HC    237    GLU    HG2    148    -0.0425      1.008
   149          C    237    GLU     CD    149     0.8054      12.01
   150         O2    237    GLU    OE1    150    -0.8188         16
   151         O2    237    GLU    OE2    151    -0.8188         16
   152          C    237    GLU      C    152     0.5366      12.01
   153          O    237    GLU      O    153    -0.5819         16   ; qtot -1
; residue 238 ALA rtp ALA  q  0.0
   154          N    238    ALA      N    154    -0.4157      14.01
   155          H    238    ALA      H    155     0.2719      1.008
   156         CT    238    ALA     CA    156     0.0337      12.01
   157         H1    238    ALA     HA    157     0.0823      1.008
   158         CT    238    ALA     CB    158    -0.1825      12.01
   159         HC    238    ALA    HB1    159     0.0603      1.008
   160         HC    238    ALA    HB2    160     0.0603      1.008
   161         HC    238    ALA    HB3    161     0.0603      1.008
   162          C    238    ALA      C    162     0.5973      12.01
   163          O    238    ALA      O    163    -0.5679         16   ; qtot -1
; residue 239 GLU rtp GLU  q -1.0
   164          N    239    GLU      N    164    -0.5163      14.01
   165          H    239    GLU      H    165     0.2936      1.008
   166         CT    239    GLU     CA    166     0.0397      12.01
   167         H1    239    GLU     HA    167     0.1105      1.008
   168         CT    239    GLU     CB    168      0.056      12.01
   169         HC    239    GLU    HB1    169    -0.0173      1.008
   170         HC    239    GLU    HB2    170    -0.0173      1.008
   171         CT    239    GLU     CG    171     0.0136      12.01
   172         HC    239    GLU    HG1    172    -0.0425      1.008
   173         HC    239    GLU    HG2    173    -0.0425      1.008
   174          C    239    GLU     CD    174     0.8054      12.01
   175         O2    239    GLU    OE1    175    -0.8188         16
   176         O2    239    GLU    OE2    176    -0.8188         16
   177          C    239    GLU      C    177     0.5366      12.01
   178          O    239    GLU      O    178    -0.5819         16   ; qtot -2
; residue 240 LEU rtp LEU  q  0.0
   179          N    240    LEU      N    179    -0.4157      14.01
   180          H    240    LEU      H    180     0.2719      1.008
   181         CT    240    LEU     CA    181    -0.0518      12.01
   182         H1    240    LEU     HA    182     0.0922      1.008
   183         CT    240    LEU     CB    183    -0.1102      12.01
   184         HC    240    LEU    HB1    184     0.0457      1.008
   185         HC    240    LEU    HB2    185     0.0457      1.008
   186         CT    240    LEU     CG    186     0.3531      12.01
   187         HC    240    LEU     HG    187    -0.0361      1.008
   188         CT    240    LEU    CD1    188    -0.4121      12.01
   189         HC    240    LEU   HD11    189        0.1      1.008
   190         HC    240    LEU   HD12    190        0.1      1.008
   191         HC    240    LEU   HD13    191        0.1      1.008
   192         CT    240    LEU    CD2    192    -0.4121      12.01
   193         HC    240    LEU   HD21    193        0.1      1.008
   194         HC    240    LEU   HD22    194        0.1      1.008
   195         HC    240    LEU   HD23    195        0.1      1.008
   196          C    240    LEU      C    196     0.5973      12.01
   197          O    240    LEU      O    197    -0.5679         16   ; qtot -2
; residue 241 ALA rtp ALA  q  0.0
   198          N    241    ALA      N    198    -0.4157      14.01
   199          H    241    ALA      H    199     0.2719      1.008
   200         CT    241    ALA     CA    200     0.0337      12.01
   201         H1    241    ALA     HA    201     0.0823      1.008
   202         CT    241    ALA     CB    202    -0.1825      12.01
   203         HC    241    ALA    HB1    203     0.0603      1.008
   204         HC    241    ALA    HB2    204     0.0603      1.008
   205         HC    241    ALA    HB3    205     0.0603      1.008
   206          C    241    ALA      C    206     0.5973      12.01
   207          O    241    ALA      O    207    -0.5679         16   ; qtot -2
; residue 242 VAL rtp VAL  q  0.0
   208          N    242    VAL      N    208    -0.4157      14.01
   209          H    242    VAL      H    209     0.2719      1.008
   210         CT    242    VAL     CA    210    -0.0875      12.01
   211         H1    242    VAL     HA    211     0.0969      1.008
   212         CT    242    VAL     CB    212     0.2985      12.01
   213         HC    242    VAL     HB    213    -0.0297      1.008
   214         CT    242    VAL    CG1    214    -0.3192      12.01
   215         HC    242    VAL   HG11    215     0.0791      1.008
   216         HC    242    VAL   HG12    216     0.0791      1.008
   217         HC    242    VAL   HG13    217     0.0791      1.008
   218         CT    242    VAL    CG2    218    -0.3192      12.01
   219         HC    242    VAL   HG21    219     0.0791      1.008
   220         HC    242    VAL   HG22    220     0.0791      1.008
   221         HC    242    VAL   HG23    221     0.0791      1.008
   222          C    242    VAL      C    222     0.5973      12.01
   223          O    242    VAL      O    223    -0.5679         16   ; qtot -2
; residue 243 GLU rtp CGLU q -2.0
   224          N    243    GLU      N    224    -0.5192      14.01
   225          H    243    GLU      H    225     0.3055      1.008
   226         CT    243    GLU     CA    226    -0.2059      12.01
   227         H1    243    GLU     HA    227     0.1399      1.008
   228         CT    243    GLU     CB    228     0.0071      12.01
   229         HC    243    GLU    HB1    229    -0.0078      1.008
   230         HC    243    GLU    HB2    230    -0.0078      1.008
   231         CT    243    GLU     CG    231     0.0675      12.01
   232         HC    243    GLU    HG1    232    -0.0548      1.008
   233         HC    243    GLU    HG2    233    -0.0548      1.008
   234          C    243    GLU     CD    234     0.8183      12.01
   235         O2    243    GLU    OE1    235     -0.822         16
   236         O2    243    GLU    OE2    236     -0.822         16
   237          C    243    GLU      C    237      0.742      12.01
   238         O2    243    GLU    OC1    238     -0.793         16
   239         O2    243    GLU    OC2    239     -0.793         16   ; qtot -4

[ bonds ]
;  ai    aj funct            c0            c1            c2            c3
    1     2     1 
    1     3     1 
    1     4     1 
    1     5     1 
    5     6     1 
    5     7     1 
    5    13     1 
    7     8     1 
    7     9     1 
    7    10     1 
   10    11     1 
   10    12     1 
   13    14     1 
   13    15     1 
   15    16     1 
   15    17     1 
   17    18     1 
   17    19     1 
   17    30     1 
   19    20     1 
   19    21     1 
   19    22     1 
   22    23     1 
   22    24     1 
   22    25     1 
   25    26     1 
   26    27     1 
   26    28     1 
   26    29     1 
   30    31     1 
   30    32     1 
   32    33     1 
   32    42     1 
   33    34     1 
   33    35     1 
   33    36     1 
   36    37     1 
   36    38     1 
   36    39     1 
   39    40     1 
   39    41     1 
   39    42     1 
   42    43     1 
   42    44     1 
   44    45     1 
   44    46     1 
   46    47     1 
   46    48     1 
   48    49     1 
   48    50     1 
   48    60     1 
   50    51     1 
   50    52     1 
   50    56     1 
   52    53     1 
   52    54     1 
   52    55     1 
   56    57     1 
   56    58     1 
   56    59     1 
   60    61     1 
   60    62     1 
   62    63     1 
   62    64     1 
   64    65     1 
   64    66     1 
   64    75     1 
   66    67     1 
   66    68     1 
   66    69     1 
   69    70     1 
   69    71     1 
   69    72     1 
   72    73     1 
   72    74     1 
   75    76     1 
   75    77     1 
   77    78     1 
   77    79     1 
   79    80     1 
   79    81     1 
   79    99     1 
   81    82     1 
   81    83     1 
   81    84     1 
   84    85     1 
   84    86     1 
   84    87     1 
   87    88     1 
   87    89     1 
   87    90     1 
   90    91     1 
   90    92     1 
   92    93     1 
   92    96     1 
   93    94     1 
   93    95     1 
   96    97     1 
   96    98     1 
   99   100     1 
   99   101     1 
  101   102     1 
  101   103     1 
  103   104     1 
  103   105     1 
  103   118     1 
  105   106     1 
  105   107     1 
  105   111     1 
  107   108     1 
  107   109     1 
  107   110     1 
  111   112     1 
  111   113     1 
  111   114     1 
  114   115     1 
  114   116     1 
  114   117     1 
  118   119     1 
  118   120     1 
  120   121     1 
  120   122     1 
  122   123     1 
  122   124     1 
  122   137     1 
  124   125     1 
  124   126     1 
  124   127     1 
  127   128     1 
  127   129     1 
  127   133     1 
  129   130     1 
  129   131     1 
  129   132     1 
  133   134     1 
  133   135     1 
  133   136     1 
  137   138     1 
  137   139     1 
  139   140     1 
  139   141     1 
  141   142     1 
  141   143     1 
  141   152     1 
  143   144     1 
  143   145     1 
  143   146     1 
  146   147     1 
  146   148     1 
  146   149     1 
  149   150     1 
  149   151     1 
  152   153     1 
  152   154     1 
  154   155     1 
  154   156     1 
  156   157     1 
  156   158     1 
  156   162     1 
  158   159     1 
  158   160     1 
  158   161     1 
  162   163     1 
  162   164     1 
  164   165     1 
  164   166     1 
  166   167     1 
  166   168     1 
  166   177     1 
  168   169     1 
  168   170     1 
  168   171     1 
  171   172     1 
  171   173     1 
  171   174     1 
  174   175     1 
  174   176     1 
  177   178     1 
  177   179     1 
  179   180     1 
  179   181     1 
  181   182     1 
  181   183     1 
  181   196     1 
  183   184     1 
  183   185     1 
  183   186     1 
  186   187     1 
  186   188     1 
  186   192     1 
  188   189     1 
  188   190     1 
  188   191     1 
  192   193     1 
  192   194     1 
  192   195     1 
  196   197     1 
  196   198     1 
  198   199     1 
  198   200     1 
  200   201     1 
  200   202     1 
  200   206     1 
  202   203     1 
  202   204     1 
  202   205     1 
  206   207     1 
  206   208     1 
  208   209     1 
  208   210     1 
  210   211     1 
  210   212     1 
  210   222     1 
  212   213     1 
  212   214     1 
  212   218     1 
  214   215     1 
  214   216     1 
  214   217     1 
  218   219     1 
  218   220     1 
  218   221     1 
  222   223     1 
  222   224     1 
  224   225     1 
  224   226     1 
  226   227     1 
  226   228     1 
  226   237     1 
  228   229     1 
  228   230     1 
  228   231     1 
  231   232     1 
  231   233     1 
  231   234     1 
  234   235     1 
  234   236     1 
  237   238     1 
  237   239     1 

[ pairs ]
;  ai    aj funct            c0            c1            c2            c3
    1     8     1 
    1     9     1 
    1    10     1 
    1    14     1 
    1    15     1 
    2     6     1 
    2     7     1 
    2    13     1 
    3     6     1 
    3     7     1 
    3    13     1 
    4     6     1 
    4     7     1 
    4    13     1 
    5    11     1 
    5    12     1 
    5    16     1 
    5    17     1 
    6     8     1 
    6     9     1 
    6    10     1 
    6    14     1 
    6    15     1 
    7    14     1 
    7    15     1 
    8    11     1 
    8    12     1 
    8    13     1 
    9    11     1 
    9    12     1 
    9    13     1 
   10    13     1 
   13    18     1 
   13    19     1 
   13    30     1 
   14    16     1 
   14    17     1 
   15    20     1 
   15    21     1 
   15    22     1 
   15    31     1 
   15    32     1 
   16    18     1 
   16    19     1 
   16    30     1 
   17    23     1 
   17    24     1 
   17    25     1 
   17    33     1 
   17    42     1 
   18    20     1 
   18    21     1 
   18    22     1 
   18    31     1 
   18    32     1 
   19    26     1 
   19    31     1 
   19    32     1 
   20    23     1 
   20    24     1 
   20    25     1 
   20    30     1 
   21    23     1 
   21    24     1 
   21    25     1 
   21    30     1 
   22    27     1 
   22    28     1 
   22    29     1 
   22    30     1 
   23    26     1 
   24    26     1 
   30    34     1 
   30    35     1 
   30    36     1 
   30    39     1 
   30    43     1 
   30    44     1 
   31    33     1 
   31    42     1 
   32    37     1 
   32    38     1 
   32    40     1 
   32    41     1 
   32    45     1 
   32    46     1 
   33    40     1 
   33    41     1 
   33    43     1 
   33    44     1 
   34    37     1 
   34    38     1 
   34    39     1 
   34    42     1 
   35    37     1 
   35    38     1 
   35    39     1 
   35    42     1 
   36    43     1 
   36    44     1 
   37    40     1 
   37    41     1 
   37    42     1 
   38    40     1 
   38    41     1 
   38    42     1 
   39    45     1 
   39    46     1 
   40    43     1 
   40    44     1 
   41    43     1 
   41    44     1 
   42    47     1 
   42    48     1 
   43    45     1 
   43    46     1 
   44    49     1 
   44    50     1 
   44    60     1 
   45    47     1 
   45    48     1 
   46    51     1 
   46    52     1 
   46    56     1 
   46    61     1 
   46    62     1 
   47    49     1 
   47    50     1 
   47    60     1 
   48    53     1 
   48    54     1 
   48    55     1 
   48    57     1 
   48    58     1 
   48    59     1 
   48    63     1 
   48    64     1 
   49    51     1 
   49    52     1 
   49    56     1 
   49    61     1 
   49    62     1 
   50    61     1 
   50    62     1 
   51    53     1 
   51    54     1 
   51    55     1 
   51    57     1 
   51    58     1 
   51    59     1 
   51    60     1 
   52    57     1 
   52    58     1 
   52    59     1 
   52    60     1 
   53    56     1 
   54    56     1 
   55    56     1 
   56    60     1 
   60    65     1 
   60    66     1 
   60    75     1 
   61    63     1 
   61    64     1 
   62    67     1 
   62    68     1 
   62    69     1 
   62    76     1 
   62    77     1 
   63    65     1 
   63    66     1 
   63    75     1 
   64    70     1 
   64    71     1 
   64    72     1 
   64    78     1 
   64    79     1 
   65    67     1 
   65    68     1 
   65    69     1 
   65    76     1 
   65    77     1 
   66    73     1 
   66    74     1 
   66    76     1 
   66    77     1 
   67    70     1 
   67    71     1 
   67    72     1 
   67    75     1 
   68    70     1 
   68    71     1 
   68    72     1 
   68    75     1 
   69    75     1 
   70    73     1 
   70    74     1 
   71    73     1 
   71    74     1 
   75    80     1 
   75    81     1 
   75    99     1 
   76    78     1 
   76    79     1 
   77    82     1 
   77    83     1 
   77    84     1 
   77   100     1 
   77   101     1 
   78    80     1 
   78    81     1 
   78    99     1 
   79    85     1 
   79    86     1 
   79    87     1 
   79   102     1 
   79   103     1 
   80    82     1 
   80    83     1 
   80    84     1 
   80   100     1 
   80   101     1 
   81    88     1 
   81    89     1 
   81    90     1 
   81   100     1 
   81   101     1 
   82    85     1 
   82    86     1 
   82    87     1 
   82    99     1 
   83    85     1 
   83    86     1 
   83    87     1 
   83    99     1 
   84    91     1 
   84    92     1 
   84    99     1 
   85    88     1 
   85    89     1 
   85    90     1 
   86    88     1 
   86    89     1 
   86    90     1 
   87    93     1 
   87    96     1 
   88    91     1 
   88    92     1 
   89    91     1 
   89    92     1 
   90    94     1 
   90    95     1 
   90    97     1 
   90    98     1 
   91    93     1 
   91    96     1 
   93    97     1 
   93    98     1 
   94    96     1 
   95    96     1 
   99   104     1 
   99   105     1 
   99   118     1 
  100   102     1 
  100   103     1 
  101   106     1 
  101   107     1 
  101   111     1 
  101   119     1 
  101   120     1 
  102   104     1 
  102   105     1 
  102   118     1 
  103   108     1 
  103   109     1 
  103   110     1 
  103   112     1 
  103   113     1 
  103   114     1 
  103   121     1 
  103   122     1 
  104   106     1 
  104   107     1 
  104   111     1 
  104   119     1 
  104   120     1 
  105   115     1 
  105   116     1 
  105   117     1 
  105   119     1 
  105   120     1 
  106   108     1 
  106   109     1 
  106   110     1 
  106   112     1 
  106   113     1 
  106   114     1 
  106   118     1 
  107   112     1 
  107   113     1 
  107   114     1 
  107   118     1 
  108   111     1 
  109   111     1 
  110   111     1 
  111   118     1 
  112   115     1 
  112   116     1 
  112   117     1 
  113   115     1 
  113   116     1 
  113   117     1 
  118   123     1 
  118   124     1 
  118   137     1 
  119   121     1 
  119   122     1 
  120   125     1 
  120   126     1 
  120   127     1 
  120   138     1 
  120   139     1 
  121   123     1 
  121   124     1 
  121   137     1 
  122   128     1 
  122   129     1 
  122   133     1 
  122   140     1 
  122   141     1 
  123   125     1 
  123   126     1 
  123   127     1 
  123   138     1 
  123   139     1 
  124   130     1 
  124   131     1 
  124   132     1 
  124   134     1 
  124   135     1 
  124   136     1 
  124   138     1 
  124   139     1 
  125   128     1 
  125   129     1 
  125   133     1 
  125   137     1 
  126   128     1 
  126   129     1 
  126   133     1 
  126   137     1 
  127   137     1 
  128   130     1 
  128   131     1 
  128   132     1 
  128   134     1 
  128   135     1 
  128   136     1 
  129   134     1 
  129   135     1 
  129   136     1 
  130   133     1 
  131   133     1 
  132   133     1 
  137   142     1 
  137   143     1 
  137   152     1 
  138   140     1 
  138   141     1 
  139   144     1 
  139   145     1 
  139   146     1 
  139   153     1 
  139   154     1 
  140   142     1 
  140   143     1 
  140   152     1 
  141   147     1 
  141   148     1 
  141   149     1 
  141   155     1 
  141   156     1 
  142   144     1 
  142   145     1 
  142   146     1 
  142   153     1 
  142   154     1 
  143   150     1 
  143   151     1 
  143   153     1 
  143   154     1 
  144   147     1 
  144   148     1 
  144   149     1 
  144   152     1 
  145   147     1 
  145   148     1 
  145   149     1 
  145   152     1 
  146   152     1 
  147   150     1 
  147   151     1 
  148   150     1 
  148   151     1 
  152   157     1 
  152   158     1 
  152   162     1 
  153   155     1 
  153   156     1 
  154   159     1 
  154   160     1 
  154   161     1 
  154   163     1 
  154   164     1 
  155   157     1 
  155   158     1 
  155   162     1 
  156   165     1 
  156   166     1 
  157   159     1 
  157   160     1 
  157   161     1 
  157   163     1 
  157   164     1 
  158   163     1 
  158   164     1 
  159   162     1 
  160   162     1 
  161   162     1 
  162   167     1 
  162   168     1 
  162   177     1 
  163   165     1 
  163   166     1 
  164   169     1 
  164   170     1 
  164   171     1 
  164   178     1 
  164   179     1 
  165   167     1 
  165   168     1 
  165   177     1 
  166   172     1 
  166   173     1 
  166   174     1 
  166   180     1 
  166   181     1 
  167   169     1 
  167   170     1 
  167   171     1 
  167   178     1 
  167   179     1 
  168   175     1 
  168   176     1 
  168   178     1 
  168   179     1 
  169   172     1 
  169   173     1 
  169   174     1 
  169   177     1 
  170   172     1 
  170   173     1 
  170   174     1 
  170   177     1 
  171   177     1 
  172   175     1 
  172   176     1 
  173   175     1 
  173   176     1 
  177   182     1 
  177   183     1 
  177   196     1 
  178   180     1 
  178   181     1 
  179   184     1 
  179   185     1 
  179   186     1 
  179   197     1 
  179   198     1 
  180   182     1 
  180   183     1 
  180   196     1 
  181   187     1 
  181   188     1 
  181   192     1 
  181   199     1 
  181   200     1 
  182   184     1 
  182   185     1 
  182   186     1 
  182   197     1 
  182   198     1 
  183   189     1 
  183   190     1 
  183   191     1 
  183   193     1 
  183   194     1 
  183   195     1 
  183   197     1 
  183   198     1 
  184   187     1 
  184   188     1 
  184   192     1 
  184   196     1 
  185   187     1 
  185   188     1 
  185   192     1 
  185   196     1 
  186   196     1 
  187   189     1 
  187   190     1 
  187   191     1 
  187   193     1 
  187   194     1 
  187   195     1 
  188   193     1 
  188   194     1 
  188   195     1 
  189   192     1 
  190   192     1 
  191   192     1 
  196   201     1 
  196   202     1 
  196   206     1 
  197   199     1 
  197   200     1 
  198   203     1 
  198   204     1 
  198   205     1 
  198   207     1 
  198   208     1 
  199   201     1 
  199   202     1 
  199   206     1 
  200   209     1 
  200   210     1 
  201   203     1 
  201   204     1 
  201   205     1 
  201   207     1 
  201   208     1 
  202   207     1 
  202   208     1 
  203   206     1 
  204   206     1 
  205   206     1 
  206   211     1 
  206   212     1 
  206   222     1 
  207   209     1 
  207   210     1 
  208   213     1 
  208   214     1 
  208   218     1 
  208   223     1 
  208   224     1 
  209   211     1 
  209   212     1 
  209   222     1 
  210   215     1 
  210   216     1 
  210   217     1 
  210   219     1 
  210   220     1 
  210   221     1 
  210   225     1 
  210   226     1 
  211   213     1 
  211   214     1 
  211   218     1 
  211   223     1 
  211   224     1 
  212   223     1 
  212   224     1 
  213   215     1 
  213   216     1 
  213   217     1 
  213   219     1 
  213   220     1 
  213   221     1 
  213   222     1 
  214   219     1 
  214   220     1 
  214   221     1 
  214   222     1 
  215   218     1 
  216   218     1 
  217   218     1 
  218   222     1 
  222   227     1 
  222   228     1 
  222   237     1 
  223   225     1 
  223   226     1 
  224   229     1 
  224   230     1 
  224   231     1 
  224   238     1 
  224   239     1 
  225   227     1 
  225   228     1 
  225   237     1 
  226   232     1 
  226   233     1 
  226   234     1 
  227   229     1 
  227   230     1 
  227   231     1 
  227   238     1 
  227   239     1 
  228   235     1 
  228   236     1 
  228   238     1 
  228   239     1 
  229   232     1 
  229   233     1 
  229   234     1 
  229   237     1 
  230   232     1 
  230   233     1 
  230   234     1 
  230   237     1 
  231   237     1 
  232   235     1 
  232   236     1 
  233   235     1 
  233   236     1 

[ angles ]
;  ai    aj    ak funct            c0            c1            c2            c3
    2     1     3     1 
    2     1     4     1 
    2     1     5     1 
    3     1     4     1 
    3     1     5     1 
    4     1     5     1 
    1     5     6     1 
    1     5     7     1 
    1     5    13     1 
    6     5     7     1 
    6     5    13     1 
    7     5    13     1 
    5     7     8     1 
    5     7     9     1 
    5     7    10     1 
    8     7     9     1 
    8     7    10     1 
    9     7    10     1 
    7    10    11     1 
    7    10    12     1 
   11    10    12     1 
    5    13    14     1 
    5    13    15     1 
   14    13    15     1 
   13    15    16     1 
   13    15    17     1 
   16    15    17     1 
   15    17    18     1 
   15    17    19     1 
   15    17    30     1 
   18    17    19     1 
   18    17    30     1 
   19    17    30     1 
   17    19    20     1 
   17    19    21     1 
   17    19    22     1 
   20    19    21     1 
   20    19    22     1 
   21    19    22     1 
   19    22    23     1 
   19    22    24     1 
   19    22    25     1 
   23    22    24     1 
   23    22    25     1 
   24    22    25     1 
   22    25    26     1 
   25    26    27     1 
   25    26    28     1 
   25    26    29     1 
   27    26    28     1 
   27    26    29     1 
   28    26    29     1 
   17    30    31     1 
   17    30    32     1 
   31    30    32     1 
   30    32    33     1 
   30    32    42     1 
   33    32    42     1 
   32    33    34     1 
   32    33    35     1 
   32    33    36     1 
   34    33    35     1 
   34    33    36     1 
   35    33    36     1 
   33    36    37     1 
   33    36    38     1 
   33    36    39     1 
   37    36    38     1 
   37    36    39     1 
   38    36    39     1 
   36    39    40     1 
   36    39    41     1 
   36    39    42     1 
   40    39    41     1 
   40    39    42     1 
   41    39    42     1 
   32    42    39     1 
   32    42    43     1 
   32    42    44     1 
   39    42    43     1 
   39    42    44     1 
   43    42    44     1 
   42    44    45     1 
   42    44    46     1 
   45    44    46     1 
   44    46    47     1 
   44    46    48     1 
   47    46    48     1 
   46    48    49     1 
   46    48    50     1 
   46    48    60     1 
   49    48    50     1 
   49    48    60     1 
   50    48    60     1 
   48    50    51     1 
   48    50    52     1 
   48    50    56     1 
   51    50    52     1 
   51    50    56     1 
   52    50    56     1 
   50    52    53     1 
   50    52    54     1 
   50    52    55     1 
   53    52    54     1 
   53    52    55     1 
   54    52    55     1 
   50    56    57     1 
   50    56    58     1 
   50    56    59     1 
   57    56    58     1 
   57    56    59     1 
   58    56    59     1 
   48    60    61     1 
   48    60    62     1 
   61    60    62     1 
   60    62    63     1 
   60    62    64     1 
   63    62    64     1 
   62    64    65     1 
   62    64    66     1 
   62    64    75     1 
   65    64    66     1 
   65    64    75     1 
   66    64    75     1 
   64    66    67     1 
   64    66    68     1 
   64    66    69     1 
   67    66    68     1 
   67    66    69     1 
   68    66    69     1 
   66    69    70     1 
   66    69    71     1 
   66    69    72     1 
   70    69    71     1 
   70    69    72     1 
   71    69    72     1 
   69    72    73     1 
   69    72    74     1 
   73    72    74     1 
   64    75    76     1 
   64    75    77     1 
   76    75    77     1 
   75    77    78     1 
   75    77    79     1 
   78    77    79     1 
   77    79    80     1 
   77    79    81     1 
   77    79    99     1 
   80    79    81     1 
   80    79    99     1 
   81    79    99     1 
   79    81    82     1 
   79    81    83     1 
   79    81    84     1 
   82    81    83     1 
   82    81    84     1 
   83    81    84     1 
   81    84    85     1 
   81    84    86     1 
   81    84    87     1 
   85    84    86     1 
   85    84    87     1 
   86    84    87     1 
   84    87    88     1 
   84    87    89     1 
   84    87    90     1 
   88    87    89     1 
   88    87    90     1 
   89    87    90     1 
   87    90    91     1 
   87    90    92     1 
   91    90    92     1 
   90    92    93     1 
   90    92    96     1 
   93    92    96     1 
   92    93    94     1 
   92    93    95     1 
   94    93    95     1 
   92    96    97     1 
   92    96    98     1 
   97    96    98     1 
   79    99   100     1 
   79    99   101     1 
  100    99   101     1 
   99   101   102     1 
   99   101   103     1 
  102   101   103     1 
  101   103   104     1 
  101   103   105     1 
  101   103   118     1 
  104   103   105     1 
  104   103   118     1 
  105   103   118     1 
  103   105   106     1 
  103   105   107     1 
  103   105   111     1 
  106   105   107     1 
  106   105   111     1 
  107   105   111     1 
  105   107   108     1 
  105   107   109     1 
  105   107   110     1 
  108   107   109     1 
  108   107   110     1 
  109   107   110     1 
  105   111   112     1 
  105   111   113     1 
  105   111   114     1 
  112   111   113     1 
  112   111   114     1 
  113   111   114     1 
  111   114   115     1 
  111   114   116     1 
  111   114   117     1 
  115   114   116     1 
  115   114   117     1 
  116   114   117     1 
  103   118   119     1 
  103   118   120     1 
  119   118   120     1 
  118   120   121     1 
  118   120   122     1 
  121   120   122     1 
  120   122   123     1 
  120   122   124     1 
  120   122   137     1 
  123   122   124     1 
  123   122   137     1 
  124   122   137     1 
  122   124   125     1 
  122   124   126     1 
  122   124   127     1 
  125   124   126     1 
  125   124   127     1 
  126   124   127     1 
  124   127   128     1 
  124   127   129     1 
  124   127   133     1 
  128   127   129     1 
  128   127   133     1 
  129   127   133     1 
  127   129   130     1 
  127   129   131     1 
  127   129   132     1 
  130   129   131     1 
  130   129   132     1 
  131   129   132     1 
  127   133   134     1 
  127   133   135     1 
  127   133   136     1 
  134   133   135     1 
  134   133   136     1 
  135   133   136     1 
  122   137   138     1 
  122   137   139     1 
  138   137   139     1 
  137   139   140     1 
  137   139   141     1 
  140   139   141     1 
  139   141   142     1 
  139   141   143     1 
  139   141   152     1 
  142   141   143     1 
  142   141   152     1 
  143   141   152     1 
  141   143   144     1 
  141   143   145     1 
  141   143   146     1 
  144   143   145     1 
  144   143   146     1 
  145   143   146     1 
  143   146   147     1 
  143   146   148     1 
  143   146   149     1 
  147   146   148     1 
  147   146   149     1 
  148   146   149     1 
  146   149   150     1 
  146   149   151     1 
  150   149   151     1 
  141   152   153     1 
  141   152   154     1 
  153   152   154     1 
  152   154   155     1 
  152   154   156     1 
  155   154   156     1 
  154   156   157     1 
  154   156   158     1 
  154   156   162     1 
  157   156   158     1 
  157   156   162     1 
  158   156   162     1 
  156   158   159     1 
  156   158   160     1 
  156   158   161     1 
  159   158   160     1 
  159   158   161     1 
  160   158   161     1 
  156   162   163     1 
  156   162   164     1 
  163   162   164     1 
  162   164   165     1 
  162   164   166     1 
  165   164   166     1 
  164   166   167     1 
  164   166   168     1 
  164   166   177     1 
  167   166   168     1 
  167   166   177     1 
  168   166   177     1 
  166   168   169     1 
  166   168   170     1 
  166   168   171     1 
  169   168   170     1 
  169   168   171     1 
  170   168   171     1 
  168   171   172     1 
  168   171   173     1 
  168   171   174     1 
  172   171   173     1 
  172   171   174     1 
  173   171   174     1 
  171   174   175     1 
  171   174   176     1 
  175   174   176     1 
  166   177   178     1 
  166   177   179     1 
  178   177   179     1 
  177   179   180     1 
  177   179   181     1 
  180   179   181     1 
  179   181   182     1 
  179   181   183     1 
  179   181   196     1 
  182   181   183     1 
  182   181   196     1 
  183   181   196     1 
  181   183   184     1 
  181   183   185     1 
  181   183   186     1 
  184   183   185     1 
  184   183   186     1 
  185   183   186     1 
  183   186   187     1 
  183   186   188     1 
  183   186   192     1 
  187   186   188     1 
  187   186   192     1 
  188   186   192     1 
  186   188   189     1 
  186   188   190     1 
  186   188   191     1 
  189   188   190     1 
  189   188   191     1 
  190   188   191     1 
  186   192   193     1 
  186   192   194     1 
  186   192   195     1 
  193   192   194     1 
  193   192   195     1 
  194   192   195     1 
  181   196   197     1 
  181   196   198     1 
  197   196   198     1 
  196   198   199     1 
  196   198   200     1 
  199   198   200     1 
  198   200   201     1 
  198   200   202     1 
  198   200   206     1 
  201   200   202     1 
  201   200   206     1 
  202   200   206     1 
  200   202   203     1 
  200   202   204     1 
  200   202   205     1 
  203   202   204     1 
  203   202   205     1 
  204   202   205     1 
  200   206   207     1 
  200   206   208     1 
  207   206   208     1 
  206   208   209     1 
  206   208   210     1 
  209   208   210     1 
  208   210   211     1 
  208   210   212     1 
  208   210   222     1 
  211   210   212     1 
  211   210   222     1 
  212   210   222     1 
  210   212   213     1 
  210   212   214     1 
  210   212   218     1 
  213   212   214     1 
  213   212   218     1 
  214   212   218     1 
  212   214   215     1 
  212   214   216     1 
  212   214   217     1 
  215   214   216     1 
  215   214   217     1 
  216   214   217     1 
  212   218   219     1 
  212   218   220     1 
  212   218   221     1 
  219   218   220     1 
  219   218   221     1 
  220   218   221     1 
  210   222   223     1 
  210   222   224     1 
  223   222   224     1 
  222   224   225     1 
  222   224   226     1 
  225   224   226     1 
  224   226   227     1 
  224   226   228     1 
  224   226   237     1 
  227   226   228     1 
  227   226   237     1 
  228   226   237     1 
  226   228   229     1 
  226   228   230     1 
  226   228   231     1 
  229   228   230     1 
  229   228   231     1 
  230   228   231     1 
  228   231   232     1 
  228   231   233     1 
  228   231   234     1 
  232   231   233     1 
  232   231   234     1 
  233   231   234     1 
  231   234   235     1 
  231   234   236     1 
  235   234   236     1 
  226   237   238     1 
  226   237   239     1 
  238   237   239     1 

[ dihedrals ]
;  ai    aj    ak    al funct            c0            c1            c2            c3            c4            c5
    2     1     5     6     9 
    2     1     5     7     9 
    2     1     5    13     9 
    3     1     5     6     9 
    3     1     5     7     9 
    3     1     5    13     9 
    4     1     5     6     9 
    4     1     5     7     9 
    4     1     5    13     9 
    1     5     7    10     9    torsion_ASP_N_CA_CB_CG_mult1
    1     5     7    10     9    torsion_ASP_N_CA_CB_CG_mult2
    1     5     7    10     9    torsion_ASP_N_CA_CB_CG_mult3
    1     5     7    10     9    torsion_ASP_N_CA_CB_CG_mult4
    1     5     7    10     9    torsion_ASP_N_CA_CB_CG_mult5
    1     5     7    10     9    torsion_ASP_N_CA_CB_CG_mult6
    1     5     7     8     9 
    1     5     7     9     9 
    6     5     7     8     9 
    6     5     7     9     9 
    6     5     7    10     9 
   13     5     7     8     9 
   13     5     7     9     9 
   13     5     7    10     9 
    1     5    13    14     9 
    1     5    13    15     9 
    6     5    13    14     9 
    6     5    13    15     9 
    7     5    13    14     9 
    7     5    13    15     9 
    5     7    10    11     9    torsion_ASP_CA_CB_CG_OD_mult1
    5     7    10    11     9    torsion_ASP_CA_CB_CG_OD_mult2
    5     7    10    11     9    torsion_ASP_CA_CB_CG_OD_mult3
    5     7    10    11     9    torsion_ASP_CA_CB_CG_OD_mult4
    5     7    10    11     9    torsion_ASP_CA_CB_CG_OD_mult5
    5     7    10    11     9    torsion_ASP_CA_CB_CG_OD_mult6
    5     7    10    12     9    torsion_ASP_CA_CB_CG_OD_mult1
    5     7    10    12     9    torsion_ASP_CA_CB_CG_OD_mult2
    5     7    10    12     9    torsion_ASP_CA_CB_CG_OD_mult3
    5     7    10    12     9    torsion_ASP_CA_CB_CG_OD_mult4
    5     7    10    12     9    torsion_ASP_CA_CB_CG_OD_mult5
    5     7    10    12     9    torsion_ASP_CA_CB_CG_OD_mult6
    8     7    10    11     9 
    8     7    10    12     9 
    9     7    10    11     9 
    9     7    10    12     9 
    5    13    15    16     9 
    5    13    15    17     9 
   14    13    15    16     9 
   14    13    15    17     9 
   13    15    17    18     9 
   13    15    17    19     9 
   13    15    17    30     9 
   16    15    17    18     9 
   16    15    17    19     9 
   16    15    17    30     9 
   15    17    19    20     9 
   15    17    19    21     9 
   15    17    19    22     9 
   18    17    19    20     9 
   18    17    19    21     9 
   18    17    19    22     9 
   30    17    19    20     9 
   30    17    19    21     9 
   30    17    19    22     9 
   15    17    30    31     9 
   15    17    30    32     9 
   18    17    30    31     9 
   18    17    30    32     9 
   19    17    30    31     9 
   19    17    30    32     9 
   17    19    22    23     9 
   17    19    22    24     9 
   17    19    22    25     9 
   20    19    22    23     9 
   20    19    22    24     9 
   20    19    22    25     9 
   21    19    22    23     9 
   21    19    22    24     9 
   21    19    22    25     9 
   19    22    25    26     9 
   23    22    25    26     9 
   24    22    25    26     9 
   22    25    26    27     9 
   22    25    26    28     9 
   22    25    26    29     9 
   17    30    32    33     9 
   17    30    32    42     9 
   31    30    32    33     9 
   31    30    32    42     9 
   30    32    33    34     9 
   30    32    33    35     9 
   30    32    33    36     9 
   42    32    33    34     9 
   42    32    33    35     9 
   42    32    33    36     9 
   30    32    42    39     9 
   30    32    42    43     9 
   30    32    42    44     9 
   33    32    42    39     9 
   33    32    42    43     9 
   33    32    42    44     9 
   32    33    36    37     9 
   32    33    36    38     9 
   32    33    36    39     9 
   34    33    36    37     9 
   34    33    36    38     9 
   34    33    36    39     9 
   35    33    36    37     9 
   35    33    36    38     9 
   35    33    36    39     9 
   33    36    39    40     9 
   33    36    39    41     9 
   33    36    39    42     9 
   37    36    39    40     9 
   37    36    39    41     9 
   37    36    39    42     9 
   38    36    39    40     9 
   38    36    39    41     9 
   38    36    39    42     9 
   36    39    42    32     9 
   36    39    42    43     9 
   36    39    42    44     9 
   40    39    42    32     9 
   40    39    42    43     9 
   40    39    42    44     9 
   41    39    42    32     9 
   41    39    42    43     9 
   41    39    42    44     9 
   32    42    44    45     9 
   32    42    44    46     9 
   39    42    44    45     9 
   39    42    44    46     9 
   43    42    44    45     9 
   43    42    44    46     9 
   42    44    46    47     9 
   42    44    46    48     9 
   45    44    46    47     9 
   45    44    46    48     9 
   44    46    48    49     9 
   44    46    48    50     9 
   44    46    48    60     9 
   47    46    48    49     9 
   47    46    48    50     9 
   47    46    48    60     9 
   46    48    50    51     9 
   46    48    50    52     9 
   46    48    50    56     9 
   49    48    50    51     9 
   49    48    50    52     9 
   49    48    50    56     9 
   60    48    50    51     9 
   60    48    50    52     9 
   60    48    50    56     9 
   46    48    60    61     9 
   46    48    60    62     9 
   49    48    60    61     9 
   49    48    60    62     9 
   50    48    60    61     9 
   50    48    60    62     9 
   48    50    52    53     9 
   48    50    52    54     9 
   48    50    52    55     9 
   51    50    52    53     9 
   51    50    52    54     9 
   51    50    52    55     9 
   56    50    52    53     9 
   56    50    52    54     9 
   56    50    52    55     9 
   48    50    56    57     9 
   48    50    56    58     9 
   48    50    56    59     9 
   51    50    56    57     9 
   51    50    56    58     9 
   51    50    56    59     9 
   52    50    56    57     9 
   52    50    56    58     9 
   52    50    56    59     9 
   48    60    62    63     9 
   48    60    62    64     9 
   61    60    62    63     9 
   61    60    62    64     9 
   60    62    64    65     9 
   60    62    64    66     9 
   60    62    64    75     9 
   63    62    64    65     9 
   63    62    64    66     9 
   63    62    64    75     9 
   62    64    66    67     9 
   62    64    66    68     9 
   62    64    66    69     9 
   65    64    66    67     9 
   65    64    66    68     9 
   65    64    66    69     9 
   75    64    66    67     9 
   75    64    66    68     9 
   75    64    66    69     9 
   62    64    75    76     9 
   62    64    75    77     9 
   65    64    75    76     9 
   65    64    75    77     9 
   66    64    75    76     9 
   66    64    75    77     9 
   64    66    69    70     9 
   64    66    69    71     9 
   64    66    69    72     9 
   67    66    69    70     9 
   67    66    69    71     9 
   67    66    69    72     9 
   68    66    69    70     9 
   68    66    69    71     9 
   68    66    69    72     9 
   66    69    72    73     9 
   66    69    72    74     9 
   70    69    72    73     9 
   70    69    72    74     9 
   71    69    72    73     9 
   71    69    72    74     9 
   64    75    77    78     9 
   64    75    77    79     9 
   76    75    77    78     9 
   76    75    77    79     9 
   75    77    79    80     9 
   75    77    79    81     9 
   75    77    79    99     9 
   78    77    79    80     9 
   78    77    79    81     9 
   78    77    79    99     9 
   77    79    81    82     9 
   77    79    81    83     9 
   77    79    81    84     9 
   80    79    81    82     9 
   80    79    81    83     9 
   80    79    81    84     9 
   99    79    81    82     9 
   99    79    81    83     9 
   99    79    81    84     9 
   77    79    99   100     9 
   77    79    99   101     9 
   80    79    99   100     9 
   80    79    99   101     9 
   81    79    99   100     9 
   81    79    99   101     9 
   79    81    84    85     9 
   79    81    84    86     9 
   79    81    84    87     9 
   82    81    84    85     9 
   82    81    84    86     9 
   82    81    84    87     9 
   83    81    84    85     9 
   83    81    84    86     9 
   83    81    84    87     9 
   81    84    87    88     9 
   81    84    87    89     9 
   81    84    87    90     9 
   85    84    87    88     9 
   85    84    87    89     9 
   85    84    87    90     9 
   86    84    87    88     9 
   86    84    87    89     9 
   86    84    87    90     9 
   84    87    90    91     9 
   84    87    90    92     9 
   88    87    90    91     9 
   88    87    90    92     9 
   89    87    90    91     9 
   89    87    90    92     9 
   87    90    92    93     9 
   87    90    92    96     9 
   91    90    92    93     9 
   91    90    92    96     9 
   90    92    93    94     9 
   90    92    93    95     9 
   96    92    93    94     9 
   96    92    93    95     9 
   90    92    96    97     9 
   90    92    96    98     9 
   93    92    96    97     9 
   93    92    96    98     9 
   79    99   101   102     9 
   79    99   101   103     9 
  100    99   101   102     9 
  100    99   101   103     9 
   99   101   103   104     9 
   99   101   103   105     9 
   99   101   103   118     9 
  102   101   103   104     9 
  102   101   103   105     9 
  102   101   103   118     9 
  101   103   105   107     9    torsion_ILE_N_CA_CB_CG2_mult1
  101   103   105   107     9    torsion_ILE_N_CA_CB_CG2_mult2
  101   103   105   106     9 
  101   103   105   111     9 
  104   103   105   106     9 
  104   103   105   107     9 
  104   103   105   111     9 
  118   103   105   106     9 
  118   103   105   107     9 
  118   103   105   111     9 
  101   103   118   119     9 
  101   103   118   120     9 
  104   103   118   119     9 
  104   103   118   120     9 
  105   103   118   119     9 
  105   103   118   120     9 
  103   105   107   108     9 
  103   105   107   109     9 
  103   105   107   110     9 
  106   105   107   108     9 
  106   105   107   109     9 
  106   105   107   110     9 
  111   105   107   108     9 
  111   105   107   109     9 
  111   105   107   110     9 
  103   105   111   112     9 
  103   105   111   113     9 
  103   105   111   114     9 
  106   105   111   112     9 
  106   105   111   113     9 
  106   105   111   114     9 
  107   105   111   112     9 
  107   105   111   113     9 
  107   105   111   114     9 
  105   111   114   115     9 
  105   111   114   116     9 
  105   111   114   117     9 
  112   111   114   115     9 
  112   111   114   116     9 
  112   111   114   117     9 
  113   111   114   115     9 
  113   111   114   116     9 
  113   111   114   117     9 
  103   118   120   121     9 
  103   118   120   122     9 
  119   118   120   121     9 
  119   118   120   122     9 
  118   120   122   123     9 
  118   120   122   124     9 
  118   120   122   137     9 
  121   120   122   123     9 
  121   120   122   124     9 
  121   120   122   137     9 
  137   122   124   127     9    torsion_LEU_C_CA_CB_CG_mult1
  137   122   124   127     9    torsion_LEU_C_CA_CB_CG_mult2
  137   122   124   127     9    torsion_LEU_C_CA_CB_CG_mult3
  120   122   124   125     9 
  120   122   124   126     9 
  120   122   124   127     9 
  123   122   124   125     9 
  123   122   124   126     9 
  123   122   124   127     9 
  137   122   124   125     9 
  137   122   124   126     9 
  120   122   137   138     9 
  120   122   137   139     9 
  123   122   137   138     9 
  123   122   137   139     9 
  124   122   137   138     9 
  124   122   137   139     9 
  122   124   127   128     9 
  122   124   127   129     9 
  122   124   127   133     9 
  125   124   127   128     9 
  125   124   127   129     9 
  125   124   127   133     9 
  126   124   127   128     9 
  126   124   127   129     9 
  126   124   127   133     9 
  124   127   129   130     9 
  124   127   129   131     9 
  124   127   129   132     9 
  128   127   129   130     9 
  128   127   129   131     9 
  128   127   129   132     9 
  133   127   129   130     9 
  133   127   129   131     9 
  133   127   129   132     9 
  124   127   133   134     9 
  124   127   133   135     9 
  124   127   133   136     9 
  128   127   133   134     9 
  128   127   133   135     9 
  128   127   133   136     9 
  129   127   133   134     9 
  129   127   133   135     9 
  129   127   133   136     9 
  122   137   139   140     9 
  122   137   139   141     9 
  138   137   139   140     9 
  138   137   139   141     9 
  137   139   141   142     9 
  137   139   141   143     9 
  137   139   141   152     9 
  140   139   141   142     9 
  140   139   141   143     9 
  140   139   141   152     9 
  139   141   143   144     9 
  139   141   143   145     9 
  139   141   143   146     9 
  142   141   143   144     9 
  142   141   143   145     9 
  142   141   143   146     9 
  152   141   143   144     9 
  152   141   143   145     9 
  152   141   143   146     9 
  139   141   152   153     9 
  139   141   152   154     9 
  142   141   152   153     9 
  142   141   152   154     9 
  143   141   152   153     9 
  143   141   152   154     9 
  141   143   146   147     9 
  141   143   146   148     9 
  141   143   146   149     9 
  144   143   146   147     9 
  144   143   146   148     9 
  144   143   146   149     9 
  145   143   146   147     9 
  145   143   146   148     9 
  145   143   146   149     9 
  143   146   149   150     9 
  143   146   149   151     9 
  147   146   149   150     9 
  147   146   149   151     9 
  148   146   149   150     9 
  148   146   149   151     9 
  141   152   154   155     9 
  141   152   154   156     9 
  153   152   154   155     9 
  153   152   154   156     9 
  152   154   156   157     9 
  152   154   156   158     9 
  152   154   156   162     9 
  155   154   156   157     9 
  155   154   156   158     9 
  155   154   156   162     9 
  154   156   158   159     9 
  154   156   158   160     9 
  154   156   158   161     9 
  157   156   158   159     9 
  157   156   158   160     9 
  157   156   158   161     9 
  162   156   158   159     9 
  162   156   158   160     9 
  162   156   158   161     9 
  154   156   162   163     9 
  154   156   162   164     9 
  157   156   162   163     9 
  157   156   162   164     9 
  158   156   162   163     9 
  158   156   162   164     9 
  156   162   164   165     9 
  156   162   164   166     9 
  163   162   164   165     9 
  163   162   164   166     9 
  162   164   166   167     9 
  162   164   166   168     9 
  162   164   166   177     9 
  165   164   166   167     9 
  165   164   166   168     9 
  165   164   166   177     9 
  164   166   168   169     9 
  164   166   168   170     9 
  164   166   168   171     9 
  167   166   168   169     9 
  167   166   168   170     9 
  167   166   168   171     9 
  177   166   168   169     9 
  177   166   168   170     9 
  177   166   168   171     9 
  164   166   177   178     9 
  164   166   177   179     9 
  167   166   177   178     9 
  167   166   177   179     9 
  168   166   177   178     9 
  168   166   177   179     9 
  166   168   171   172     9 
  166   168   171   173     9 
  166   168   171   174     9 
  169   168   171   172     9 
  169   168   171   173     9 
  169   168   171   174     9 
  170   168   171   172     9 
  170   168   171   173     9 
  170   168   171   174     9 
  168   171   174   175     9 
  168   171   174   176     9 
  172   171   174   175     9 
  172   171   174   176     9 
  173   171   174   175     9 
  173   171   174   176     9 
  166   177   179   180     9 
  166   177   179   181     9 
  178   177   179   180     9 
  178   177   179   181     9 
  177   179   181   182     9 
  177   179   181   183     9 
  177   179   181   196     9 
  180   179   181   182     9 
  180   179   181   183     9 
  180   179   181   196     9 
  196   181   183   186     9    torsion_LEU_C_CA_CB_CG_mult1
  196   181   183   186     9    torsion_LEU_C_CA_CB_CG_mult2
  196   181   183   186     9    torsion_LEU_C_CA_CB_CG_mult3
  179   181   183   184     9 
  179   181   183   185     9 
  179   181   183   186     9 
  182   181   183   184     9 
  182   181   183   185     9 
  182   181   183   186     9 
  196   181   183   184     9 
  196   181   183   185     9 
  179   181   196   197     9 
  179   181   196   198     9 
  182   181   196   197     9 
  182   181   196   198     9 
  183   181   196   197     9 
  183   181   196   198     9 
  181   183   186   187     9 
  181   183   186   188     9 
  181   183   186   192     9 
  184   183   186   187     9 
  184   183   186   188     9 
  184   183   186   192     9 
  185   183   186   187     9 
  185   183   186   188     9 
  185   183   186   192     9 
  183   186   188   189     9 
  183   186   188   190     9 
  183   186   188   191     9 
  187   186   188   189     9 
  187   186   188   190     9 
  187   186   188   191     9 
  192   186   188   189     9 
  192   186   188   190     9 
  192   186   188   191     9 
  183   186   192   193     9 
  183   186   192   194     9 
  183   186   192   195     9 
  187   186   192   193     9 
  187   186   192   194     9 
  187   186   192   195     9 
  188   186   192   193     9 
  188   186   192   194     9 
  188   186   192   195     9 
  181   196   198   199     9 
  181   196   198   200     9 
  197   196   198   199     9 
  197   196   198   200     9 
  196   198   200   201     9 
  196   198   200   202     9 
  196   198   200   206     9 
  199   198   200   201     9 
  199   198   200   202     9 
  199   198   200   206     9 
  198   200   202   203     9 
  198   200   202   204     9 
  198   200   202   205     9 
  201   200   202   203     9 
  201   200   202   204     9 
  201   200   202   205     9 
  206   200   202   203     9 
  206   200   202   204     9 
  206   200   202   205     9 
  198   200   206   207     9 
  198   200   206   208     9 
  201   200   206   207     9 
  201   200   206   208     9 
  202   200   206   207     9 
  202   200   206   208     9 
  200   206   208   209     9 
  200   206   208   210     9 
  207   206   208   209     9 
  207   206   208   210     9 
  206   208   210   211     9 
  206   208   210   212     9 
  206   208   210   222     9 
  209   208   210   211     9 
  209   208   210   212     9 
  209   208   210   222     9 
  208   210   212   213     9 
  208   210   212   214     9 
  208   210   212   218     9 
  211   210   212   213     9 
  211   210   212   214     9 
  211   210   212   218     9 
  222   210   212   213     9 
  222   210   212   214     9 
  222   210   212   218     9 
  208   210   222   223     9 
  208   210   222   224     9 
  211   210   222   223     9 
  211   210   222   224     9 
  212   210   222   223     9 
  212   210   222   224     9 
  210   212   214   215     9 
  210   212   214   216     9 
  210   212   214   217     9 
  213   212   214   215     9 
  213   212   214   216     9 
  213   212   214   217     9 
  218   212   214   215     9 
  218   212   214   216     9 
  218   212   214   217     9 
  210   212   218   219     9 
  210   212   218   220     9 
  210   212   218   221     9 
  213   212   218   219     9 
  213   212   218   220     9 
  213   212   218   221     9 
  214   212   218   219     9 
  214   212   218   220     9 
  214   212   218   221     9 
  210   222   224   225     9 
  210   222   224   226     9 
  223   222   224   225     9 
  223   222   224   226     9 
  222   224   226   227     9 
  222   224   226   228     9 
  222   224   226   237     9 
  225   224   226   227     9 
  225   224   226   228     9 
  225   224   226   237     9 
  224   226   228   229     9 
  224   226   228   230     9 
  224   226   228   231     9 
  227   226   228   229     9 
  227   226   228   230     9 
  227   226   228   231     9 
  237   226   228   229     9 
  237   226   228   230     9 
  237   226   228   231     9 
  224   226   237   238     9 
  224   226   237   239     9 
  227   226   237   238     9 
  227   226   237   239     9 
  228   226   237   238     9 
  228   226   237   239     9 
  226   228   231   232     9 
  226   228   231   233     9 
  226   228   231   234     9 
  229   228   231   232     9 
  229   228   231   233     9 
  229   228   231   234     9 
  230   228   231   232     9 
  230   228   231   233     9 
  230   228   231   234     9 
  228   231   234   235     9 
  228   231   234   236     9 
  232   231   234   235     9 
  232   231   234   236     9 
  233   231   234   235     9 
  233   231   234   236     9 

[ dihedrals ]
;  ai    aj    ak    al funct            c0            c1            c2            c3
    5    15    13    14     4 
    7    11    10    12     4 
   13    17    15    16     4 
   17    32    30    31     4 
   30    33    32    42     4 
   42    46    44    45     4 
   44    48    46    47     4 
   48    62    60    61     4 
   60    64    62    63     4 
   64    77    75    76     4 
   69    73    72    74     4 
   75    79    77    78     4 
   79   101    99   100     4 
   87    92    90    91     4 
   90    93    92    96     4 
   92    94    93    95     4 
   92    97    96    98     4 
   99   103   101   102     4 
  103   120   118   119     4 
  118   122   120   121     4 
  122   139   137   138     4 
  137   141   139   140     4 
  141   154   152   153     4 
  146   150   149   151     4 
  152   156   154   155     4 
  156   164   162   163     4 
  162   166   164   165     4 
  166   179   177   178     4 
  171   175   174   176     4 
  177   181   179   180     4 
  181   198   196   197     4 
  196   200   198   199     4 
  200   208   206   207     4 
  206   210   208   209     4 
  210   224   222   223     4 
  222   226   224   225     4 
  226   238   237   239     4 
  231   235   234   236     4 

; Include Position restraint file
#ifdef POSRES
#include "2P1T_proteinH_gaps_fragment_01_posre.itp"
#endif

; Include water topology
#include "amber99sb-ildn.ff/tip3p.itp"

#ifdef POSRES_WATER
; Position restraint for each water oxygen
[ position_restraints ]
;  i funct       fcx        fcy        fcz
   1    1       1000       1000       1000
#endif

; Include topology for ions
#include "amber99sb-ildn.ff/ions.itp"

[ system ]
; Name
Protein

[ molecules ]
; Compound        #mols
Protein_chain_A     1
